    8    8    1    1
  0.1048974E+02  0.4378092E-09  0.4378092E-09  0.4378092E-09  0.5000000E-15
   1.0000000000000000E-004
  CAR 
 unknown system                          
     32     84     84

  0.3742002E-15  0.3742002E-15  0.3742002E-15  0.5787037E-03
    1       -7.343426   1.000000
    2       -2.391442   1.000000
    3       -2.391442   1.000000
    4       -2.391442   1.000000
    5        0.200312   1.000000
    6        0.200312   1.000000
    7        0.200312   1.000000
    8        4.793310   1.000000
    9        4.793310   1.000000
   10        4.793310   1.000000
   11        4.793310   1.000000
   12        4.793310   1.000000
   13        4.793310   1.000000
   14        7.950938   1.000000
   15        7.950938   1.000000
   16        7.950938   1.000000
   17        9.322016   0.000000
   18        9.322016   0.000000
   19        9.322016   0.000000
   20       12.226778   0.000000
   21       12.226778   0.000000
   22       12.226778   0.000000
   23       14.022863   0.000000
   24       15.164833   0.000000
   25       15.164833   0.000000
   26       15.164833   0.000000
   27       21.825077   0.000000
   28       21.825077   0.000000
   29       21.825077   0.000000
   30       21.825077   0.000000
   31       21.825077   0.000000
   32       21.825077   0.000000
   33       22.378918   0.000000
   34       22.378918   0.000000
   35       22.553106   0.000000
   36       22.553106   0.000000
   37       22.553106   0.000000
   38       24.219950   0.000000
   39       25.114837   0.000000
   40       25.114837   0.000000
   41       25.114837   0.000000
   42       27.926311   0.000000
   43       27.926311   0.000000
   44       27.926311   0.000000
   45       29.922933   0.000000
   46       29.922933   0.000000
   47       29.922933   0.000000
   48       29.922933   0.000000
   49       29.922933   0.000000
   50       29.922933   0.000000
   51       30.313445   0.000000
   52       30.313445   0.000000
   53       30.313445   0.000000
   54       31.264837   0.000000
   55       32.571614   0.000000
   56       32.571614   0.000000
   57       32.571614   0.000000
   58       36.452456   0.000000
   59       36.452456   0.000000
   60       36.452456   0.000000
   61       36.452456   0.000000
   62       36.452457   0.000000
   63       36.452458   0.000000
   64       37.513481   0.000000
   65       37.513481   0.000000
   66       37.513481   0.000000
   67       39.530882   0.000000
   68       39.530882   0.000000
   69       39.530882   0.000000
   70       41.355977   0.000000
   71       41.355979   0.000000
   72       41.355988   0.000000
   73       41.640318   0.000000
   74       41.640318   0.000000
   75       41.640318   0.000000
   76       41.640318   0.000000
   77       41.640318   0.000000
   78       41.640321   0.000000
   79       42.053665   0.000000
   80       42.053665   0.000000
   81       42.053675   0.000000
   82       44.577774   0.000000
   83       44.577801   0.000000
   84       44.578444   0.000000

  0.8333333E-01  0.3742002E-15  0.3742002E-15  0.3472222E-02
    1       -7.298571   1.000000
    2       -2.666060   1.000000
    3       -2.377646   1.000000
    4       -2.377646   1.000000
    5        0.235909   1.000000
    6        0.235909   1.000000
    7        0.508675   1.000000
    8        4.658359   1.000000
    9        4.658359   1.000000
   10        4.672085   1.000000
   11        4.672085   1.000000
   12        4.830052   1.000000
   13        4.830052   1.000000
   14        7.804125   1.000000
   15        7.861190   1.000000
   16        7.861190   1.000000
   17        9.402560   0.000000
   18        9.552460   0.000000
   19        9.552460   0.000000
   20       12.281317   0.000000
   21       12.436109   0.000000
   22       12.436109   0.000000
   23       14.155219   0.000000
   24       15.043954   0.000000
   25       15.295069   0.000000
   26       15.295069   0.000000
   27       21.547219   0.000000
   28       21.547219   0.000000
   29       21.675448   0.000000
   30       21.675448   0.000000
   31       21.730880   0.000000
   32       21.836371   0.000000
   33       21.836371   0.000000
   34       22.403534   0.000000
   35       22.403534   0.000000
   36       22.424829   0.000000
   37       22.429536   0.000000
   38       24.373117   0.000000
   39       25.205163   0.000000
   40       25.205163   0.000000
   41       25.685375   0.000000
   42       27.398230   0.000000
   43       27.398230   0.000000
   44       27.655341   0.000000
   45       29.541722   0.000000
   46       29.541722   0.000000
   47       30.067167   0.000000
   48       30.067167   0.000000
   49       30.325436   0.000000
   50       30.521529   0.000000
   51       30.521529   0.000000
   52       30.763248   0.000000
   53       30.763248   0.000000
   54       31.560169   0.000000
   55       32.830778   0.000000
   56       32.830778   0.000000
   57       32.945260   0.000000
   58       35.828232   0.000000
   59       35.828233   0.000000
   60       35.958898   0.000000
   61       35.958898   0.000000
   62       36.408604   0.000000
   63       36.408606   0.000000
   64       36.797673   0.000000
   65       38.125352   0.000000
   66       38.125352   0.000000
   67       39.204647   0.000000
   68       39.204647   0.000000
   69       39.298904   0.000000
   70       41.163647   0.000000
   71       41.163650   0.000000
   72       41.281681   0.000000
   73       41.281682   0.000000
   74       41.321276   0.000000
   75       41.675369   0.000000
   76       41.675371   0.000000
   77       42.192910   0.000000
   78       42.192914   0.000000
   79       42.627495   0.000000
   80       42.986438   0.000000
   81       42.986444   0.000000
   82       44.836492   0.000000
   83       44.836688   0.000000
   84       45.164281   0.000000

  0.1666667E+00  0.3742002E-15  0.3742002E-15  0.3472222E-02
    1       -7.164319   1.000000
    2       -3.262477   1.000000
    3       -2.339218   1.000000
    4       -2.339218   1.000000
    5        0.339610   1.000000
    6        0.339610   1.000000
    7        1.203672   1.000000
    8        4.331505   1.000000
    9        4.331505   1.000000
   10        4.351524   1.000000
   11        4.351524   1.000000
   12        4.939548   1.000000
   13        4.939548   1.000000
   14        7.403832   1.000000
   15        7.613926   1.000000
   16        7.613926   1.000000
   17        9.643282   0.000000
   18       10.162681   0.000000
   19       10.162681   0.000000
   20       12.445648   0.000000
   21       13.021932   0.000000
   22       13.021932   0.000000
   23       14.399996   0.000000
   24       14.799152   0.000000
   25       15.662273   0.000000
   26       15.662273   0.000000
   27       20.520476   0.000000
   28       20.800348   0.000000
   29       20.800348   0.000000
   30       21.263111   0.000000
   31       21.263111   0.000000
   32       21.850741   0.000000
   33       21.850741   0.000000
   34       21.949131   0.000000
   35       21.949131   0.000000
   36       22.058285   0.000000
   37       22.581182   0.000000
   38       24.908019   0.000000
   39       25.476059   0.000000
   40       25.476059   0.000000
   41       26.574784   0.000000
   42       26.574784   0.000000
   43       26.591212   0.000000
   44       27.019780   0.000000
   45       29.186100   0.000000
   46       29.186100   0.000000
   47       30.329513   0.000000
   48       30.403631   0.000000
   49       30.403631   0.000000
   50       31.226036   0.000000
   51       31.226036   0.000000
   52       31.558205   0.000000
   53       31.558205   0.000000
   54       32.415006   0.000000
   55       33.603136   0.000000
   56       33.603136   0.000000
   57       33.888652   0.000000
   58       34.969429   0.000000
   59       34.969429   0.000000
   60       35.051649   0.000000
   61       35.051650   0.000000
   62       35.412030   0.000000
   63       36.294369   0.000000
   64       36.294371   0.000000
   65       38.496314   0.000000
   66       38.496314   0.000000
   67       38.572833   0.000000
   68       38.665858   0.000000
   69       38.665858   0.000000
   70       40.601008   0.000000
   71       40.601008   0.000000
   72       41.243282   0.000000
   73       41.297689   0.000000
   74       41.297690   0.000000
   75       42.085290   0.000000
   76       42.085290   0.000000
   77       43.384246   0.000000
   78       43.384254   0.000000
   79       44.041417   0.000000
   80       44.380582   0.000000
   81       44.380603   0.000000
   82       45.501131   0.000000
   83       45.501334   0.000000
   84       46.457679   0.000000

  0.2500000E+00  0.3742002E-15  0.3742002E-15  0.3472222E-02
    1       -6.941591   1.000000
    2       -3.938112   1.000000
    3       -2.284689   1.000000
    4       -2.284689   1.000000
    5        0.500944   1.000000
    6        0.500944   1.000000
    7        2.035879   1.000000
    8        3.926358   1.000000
    9        3.926358   1.000000
   10        3.951246   1.000000
   11        3.951246   1.000000
   12        5.119631   1.000000
   13        5.119631   1.000000
   14        6.830193   1.000000
   15        7.259989   1.000000
   16        7.259989   1.000000
   17       10.039916   0.000000
   18       11.002169   0.000000
   19       11.002169   0.000000
   20       12.722081   0.000000
   21       13.893809   0.000000
   22       13.893809   0.000000
   23       14.052745   0.000000
   24       15.023305   0.000000
   25       16.211421   0.000000
   26       16.211421   0.000000
   27       19.386706   0.000000
   28       19.773290   0.000000
   29       19.773290   0.000000
   30       20.666661   0.000000
   31       20.666661   0.000000
   32       21.111060   0.000000
   33       21.111060   0.000000
   34       21.499671   0.000000
   35       21.921682   0.000000
   36       21.921682   0.000000
   37       22.833184   0.000000
   38       25.744731   0.000000
   39       25.926652   0.000000
   40       25.926652   0.000000
   41       25.931088   0.000000
   42       25.931088   0.000000
   43       26.262662   0.000000
   44       27.378588   0.000000
   45       28.970968   0.000000
   46       28.970968   0.000000
   47       30.248910   0.000000
   48       30.596685   0.000000
   49       30.596685   0.000000
   50       31.544595   0.000000
   51       31.544595   0.000000
   52       32.451321   0.000000
   53       32.451321   0.000000
   54       33.674580   0.000000
   55       33.899903   0.000000
   56       34.220553   0.000000
   57       34.220553   0.000000
   58       34.631997   0.000000
   59       34.631997   0.000000
   60       34.670839   0.000000
   61       34.670839   0.000000
   62       35.157926   0.000000
   63       36.148533   0.000000
   64       36.148535   0.000000
   65       37.815193   0.000000
   66       37.834106   0.000000
   67       37.834106   0.000000
   68       38.581014   0.000000
   69       38.581014   0.000000
   70       39.721693   0.000000
   71       39.721694   0.000000
   72       41.213213   0.000000
   73       41.534769   0.000000
   74       41.534769   0.000000
   75       43.091967   0.000000
   76       43.091967   0.000000
   77       44.640647   0.000000
   78       44.640909   0.000000
   79       45.602234   0.000000
   80       45.686344   0.000000
   81       45.712913   0.000000
   82       45.832516   0.000000
   83       46.438709   0.000000
   84       46.611143   0.000000

  0.3333333E+00  0.3742002E-15  0.3742002E-15  0.3472222E-02
    1       -6.631995   1.000000
    2       -4.600693   1.000000
    3       -2.227521   1.000000
    4       -2.227521   1.000000
    5        0.696024   1.000000
    6        0.696024   1.000000
    7        2.904951   1.000000
    8        3.496014   1.000000
    9        3.496014   1.000000
   10        3.619349   1.000000
   11        3.619349   1.000000
   12        5.366780   1.000000
   13        5.366780   1.000000
   14        6.149849   1.000000
   15        6.852893   1.000000
   16        6.852893   1.000000
   17       10.580193   0.000000
   18       11.930462   0.000000
   19       11.930462   0.000000
   20       13.114202   0.000000
   21       13.424163   0.000000
   22       14.964492   0.000000
   23       14.964492   0.000000
   24       15.168568   0.000000
   25       16.883133   0.000000
   26       16.883133   0.000000
   27       18.665294   0.000000
   28       18.665294   0.000000
   29       18.715127   0.000000
   30       19.960004   0.000000
   31       19.960004   0.000000
   32       20.022407   0.000000
   33       20.022407   0.000000
   34       20.808160   0.000000
   35       21.969524   0.000000
   36       21.969524   0.000000
   37       23.184337   0.000000
   38       25.506318   0.000000
   39       25.527803   0.000000
   40       25.527803   0.000000
   41       26.553041   0.000000
   42       26.553041   0.000000
   43       26.791777   0.000000
   44       28.057312   0.000000
   45       28.850892   0.000000
   46       28.850892   0.000000
   47       30.011349   0.000000
   48       30.177829   0.000000
   49       30.177829   0.000000
   50       31.787896   0.000000
   51       31.787896   0.000000
   52       32.388643   0.000000
   53       32.785223   0.000000
   54       32.785224   0.000000
   55       34.296672   0.000000
   56       34.296672   0.000000
   57       34.923240   0.000000
   58       34.923241   0.000000
   59       35.024467   0.000000
   60       35.567445   0.000000
   61       35.567446   0.000000
   62       36.013805   0.000000
   63       36.013805   0.000000
   64       36.629914   0.000000
   65       37.272490   0.000000
   66       37.574191   0.000000
   67       37.574191   0.000000
   68       38.114213   0.000000
   69       38.114213   0.000000
   70       38.620758   0.000000
   71       38.620758   0.000000
   72       41.425558   0.000000
   73       41.814169   0.000000
   74       41.814169   0.000000
   75       43.793981   0.000000
   76       44.221953   0.000000
   77       44.221964   0.000000
   78       45.490959   0.000000
   79       45.493225   0.000000
   80       45.673508   0.000000
   81       45.676343   0.000000
   82       46.319752   0.000000
   83       47.611957   0.000000
   84       47.624466   0.000000

  0.4166667E+00  0.3742002E-15  0.3742002E-15  0.3472222E-02
    1       -6.238111   1.000000
    2       -5.214834   1.000000
    3       -2.183853   1.000000
    4       -2.183853   1.000000
    5        0.874226   1.000000
    6        0.874226   1.000000
    7        3.159714   1.000000
    8        3.159714   1.000000
    9        3.397240   1.000000
   10        3.397240   1.000000
   11        3.767958   1.000000
   12        5.401389   1.000000
   13        5.675070   1.000000
   14        5.675070   1.000000
   15        6.434808   1.000000
   16        6.434808   1.000000
   17       11.237261   0.000000
   18       12.712317   0.000000
   19       12.762987   0.000000
   20       12.762987   0.000000
   21       13.623258   0.000000
   22       14.837654   0.000000
   23       16.162983   0.000000
   24       16.162983   0.000000
   25       17.628013   0.000000
   26       17.628013   0.000000
   27       17.707479   0.000000
   28       17.707479   0.000000
   29       18.764721   0.000000
   30       18.779945   0.000000
   31       18.779945   0.000000
   32       19.195466   0.000000
   33       19.195466   0.000000
   34       20.050526   0.000000
   35       22.006513   0.000000
   36       22.006513   0.000000
   37       23.632396   0.000000
   38       24.802300   0.000000
   39       25.316143   0.000000
   40       25.316143   0.000000
   41       27.344084   0.000000
   42       27.344084   0.000000
   43       27.956681   0.000000
   44       28.720721   0.000000
   45       28.790728   0.000000
   46       28.790728   0.000000
   47       29.275031   0.000000
   48       29.275031   0.000000
   49       29.593895   0.000000
   50       30.928468   0.000000
   51       31.961200   0.000000
   52       31.961200   0.000000
   53       32.726571   0.000000
   54       32.726572   0.000000
   55       35.086102   0.000000
   56       35.086103   0.000000
   57       35.703398   0.000000
   58       35.703398   0.000000
   59       35.771006   0.000000
   60       35.771006   0.000000
   61       35.963131   0.000000
   62       35.963131   0.000000
   63       36.075231   0.000000
   64       36.942227   0.000000
   65       37.408503   0.000000
   66       37.408503   0.000000
   67       37.477220   0.000000
   68       37.477220   0.000000
   69       37.987299   0.000000
   70       37.987299   0.000000
   71       38.251279   0.000000
   72       41.848331   0.000000
   73       42.028869   0.000000
   74       42.028871   0.000000
   75       42.172812   0.000000
   76       44.523154   0.000000
   77       44.523350   0.000000
   78       44.964471   0.000000
   79       44.964582   0.000000
   80       45.271545   0.000000
   81       46.400830   0.000000
   82       46.417094   0.000000
   83       47.273598   0.000000
   84       47.459311   0.000000

  0.5000000E+00  0.3742002E-15  0.3742002E-15  0.1736111E-02
    1       -5.763780   1.000000
    2       -5.763780   1.000000
    3       -2.167445   1.000000
    4       -2.167445   1.000000
    5        0.951552   1.000000
    6        0.951552   1.000000
    7        3.027123   1.000000
    8        3.027123   1.000000
    9        3.319359   1.000000
   10        3.319359   1.000000
   11        4.603857   1.000000
   12        4.603857   1.000000
   13        6.035474   1.000000
   14        6.035474   1.000000
   15        6.035474   1.000000
   16        6.035474   1.000000
   17       11.966406   0.000000
   18       11.966406   0.000000
   19       13.140482   0.000000
   20       13.140482   0.000000
   21       14.230678   0.000000
   22       14.230678   0.000000
   23       17.262797   0.000000
   24       17.262797   0.000000
   25       17.285505   0.000000
   26       17.285505   0.000000
   27       17.659827   0.000000
   28       17.659827   0.000000
   29       18.408628   0.000000
   30       18.408628   0.000000
   31       18.408628   0.000000
   32       18.408628   0.000000
   33       19.315386   0.000000
   34       19.315386   0.000000
   35       22.020423   0.000000
   36       22.020423   0.000000
   37       24.173790   0.000000
   38       24.173790   0.000000
   39       25.250574   0.000000
   40       25.250574   0.000000
   41       28.272945   0.000000
   42       28.272945   0.000000
   43       28.272945   0.000000
   44       28.272945   0.000000
   45       28.772476   0.000000
   46       28.772476   0.000000
   47       28.974315   0.000000
   48       28.974315   0.000000
   49       29.613136   0.000000
   50       29.613136   0.000000
   51       32.026780   0.000000
   52       32.026780   0.000000
   53       32.675562   0.000000
   54       32.675562   0.000000
   55       35.730540   0.000000
   56       35.730541   0.000000
   57       35.949706   0.000000
   58       35.949706   0.000000
   59       36.191139   0.000000
   60       36.191139   0.000000
   61       36.191139   0.000000
   62       36.191139   0.000000
   63       36.320189   0.000000
   64       36.320189   0.000000
   65       36.644199   0.000000
   66       36.644199   0.000000
   67       36.941778   0.000000
   68       36.941778   0.000000
   69       38.321938   0.000000
   70       38.321938   0.000000
   71       39.996059   0.000000
   72       39.996059   0.000000
   73       42.108612   0.000000
   74       42.108615   0.000000
   75       43.572692   0.000000
   76       43.572713   0.000000
   77       44.070127   0.000000
   78       44.070187   0.000000
   79       45.191995   0.000000
   80       45.192266   0.000000
   81       46.888055   0.000000
   82       46.890360   0.000000
   83       46.898780   0.000000
   84       47.056095   0.000000

  0.8333333E-01  0.8333333E-01  0.3742002E-15  0.6944444E-02
    1       -7.253807   1.000000
    2       -2.646653   1.000000
    3       -2.646653   1.000000
    4       -2.366032   1.000000
    5        0.270715   1.000000
    6        0.534567   1.000000
    7        0.534567   1.000000
    8        4.269840   1.000000
    9        4.693249   1.000000
   10        4.693249   1.000000
   11        4.717826   1.000000
   12        4.717826   1.000000
   13        4.860874   1.000000
   14        7.510828   1.000000
   15        7.769225   1.000000
   16        7.941921   1.000000
   17        9.630048   0.000000
   18        9.630048   0.000000
   19        9.714150   0.000000
   20       12.489493   0.000000
   21       12.489493   0.000000
   22       12.659282   0.000000
   23       14.247334   0.000000
   24       15.128574   0.000000
   25       15.221420   0.000000
   26       15.438765   0.000000
   27       21.344063   0.000000
   28       21.344063   0.000000
   29       21.512203   0.000000
   30       21.568377   0.000000
   31       21.611290   0.000000
   32       21.686047   0.000000
   33       21.686047   0.000000
   34       22.085646   0.000000
   35       22.272247   0.000000
   36       22.343290   0.000000
   37       22.343290   0.000000
   38       24.430339   0.000000
   39       25.275684   0.000000
   40       25.399174   0.000000
   41       26.202791   0.000000
   42       26.944278   0.000000
   43       27.277127   0.000000
   44       27.277127   0.000000
   45       29.550699   0.000000
   46       29.620399   0.000000
   47       29.620399   0.000000
   48       30.449552   0.000000
   49       30.449552   0.000000
   50       30.659070   0.000000
   51       30.833437   0.000000
   52       30.833437   0.000000
   53       31.215824   0.000000
   54       31.828607   0.000000
   55       33.055611   0.000000
   56       33.253034   0.000000
   57       33.253034   0.000000
   58       35.162690   0.000000
   59       35.225485   0.000000
   60       35.225486   0.000000
   61       35.908466   0.000000
   62       35.908467   0.000000
   63       36.842621   0.000000
   64       37.595819   0.000000
   65       37.595819   0.000000
   66       38.205486   0.000000
   67       38.985125   0.000000
   68       39.248697   0.000000
   69       39.248697   0.000000
   70       40.929960   0.000000
   71       41.042164   0.000000
   72       41.262109   0.000000
   73       41.266106   0.000000
   74       41.531981   0.000000
   75       41.531982   0.000000
   76       41.897537   0.000000
   77       42.162419   0.000000
   78       42.162420   0.000000
   79       43.279155   0.000000
   80       43.576732   0.000000
   81       43.576733   0.000000
   82       45.178391   0.000000
   83       45.407829   0.000000
   84       45.408376   0.000000

  0.1666667E+00  0.8333333E-01  0.3742002E-15  0.1388889E-01
    1       -7.119783   1.000000
    2       -3.235056   1.000000
    3       -2.591373   1.000000
    4       -2.334564   1.000000
    5        0.371889   1.000000
    6        0.608516   1.000000
    7        1.208629   1.000000
    8        3.791741   1.000000
    9        4.348260   1.000000
   10        4.434724   1.000000
   11        4.801737   1.000000
   12        4.802028   1.000000
   13        4.850208   1.000000
   14        7.034631   1.000000
   15        7.516384   1.000000
   16        7.822534   1.000000
   17        9.862398   0.000000
   18       10.193670   0.000000
   19       10.233927   0.000000
   20       12.650282   0.000000
   21       13.072407   0.000000
   22       13.270397   0.000000
   23       14.456764   0.000000
   24       14.883619   0.000000
   25       15.556438   0.000000
   26       15.813535   0.000000
   27       20.521851   0.000000
   28       20.560431   0.000000
   29       20.810872   0.000000
   30       20.842068   0.000000
   31       21.267894   0.000000
   32       21.612587   0.000000
   33       21.715218   0.000000
   34       21.849790   0.000000
   35       21.998054   0.000000
   36       22.104016   0.000000
   37       22.149822   0.000000
   38       24.797543   0.000000
   39       25.499044   0.000000
   40       25.802374   0.000000
   41       26.161545   0.000000
   42       26.542538   0.000000
   43       26.886156   0.000000
   44       27.140938   0.000000
   45       29.266626   0.000000
   46       29.346669   0.000000
   47       29.733527   0.000000
   48       30.494163   0.000000
   49       31.014744   0.000000
   50       31.169498   0.000000
   51       31.251219   0.000000
   52       31.360981   0.000000
   53       31.939203   0.000000
   54       32.617888   0.000000
   55       33.740106   0.000000
   56       33.962385   0.000000
   57       34.088822   0.000000
   58       34.312054   0.000000
   59       34.369691   0.000000
   60       34.436744   0.000000
   61       34.938333   0.000000
   62       35.779503   0.000000
   63       36.459697   0.000000
   64       37.039846   0.000000
   65       37.855997   0.000000
   66       38.430013   0.000000
   67       38.729497   0.000000
   68       38.978657   0.000000
   69       39.054585   0.000000
   70       40.305993   0.000000
   71       40.558588   0.000000
   72       41.184174   0.000000
   73       41.262127   0.000000
   74       41.340379   0.000000
   75       42.267163   0.000000
   76       42.332236   0.000000
   77       42.660235   0.000000
   78       43.290899   0.000000
   79       44.268731   0.000000
   80       44.683436   0.000000
   81       44.783353   0.000000
   82       46.026074   0.000000
   83       46.135218   0.000000
   84       46.741357   0.000000

  0.2500000E+00  0.8333333E-01  0.3742002E-15  0.1388889E-01
    1       -6.897469   1.000000
    2       -3.905020   1.000000
    3       -2.509159   1.000000
    4       -2.293085   1.000000
    5        0.528036   1.000000
    6        0.718393   1.000000
    7        2.011494   1.000000
    8        3.333657   1.000000
    9        3.904140   1.000000
   10        4.102300   1.000000
   11        4.552176   1.000000
   12        4.982896   1.000000
   13        5.066633   1.000000
   14        6.458423   1.000000
   15        7.155227   1.000000
   16        7.520215   1.000000
   17       10.246718   0.000000
   18       10.933536   0.000000
   19       11.066343   0.000000
   20       12.920442   0.000000
   21       13.940366   0.000000
   22       14.152963   0.000000
   23       14.193035   0.000000
   24       15.007238   0.000000
   25       16.111418   0.000000
   26       16.293745   0.000000
   27       19.444529   0.000000
   28       19.491261   0.000000
   29       19.795083   0.000000
   30       20.183363   0.000000
   31       20.660424   0.000000
   32       21.089363   0.000000
   33       21.316959   0.000000
   34       21.655232   0.000000
   35       21.670254   0.000000
   36       21.755258   0.000000
   37       22.466069   0.000000
   38       25.385564   0.000000
   39       25.533221   0.000000
   40       25.869685   0.000000
   41       25.883556   0.000000
   42       26.268023   0.000000
   43       26.455978   0.000000
   44       27.991753   0.000000
   45       29.070131   0.000000
   46       29.160087   0.000000
   47       29.693552   0.000000
   48       30.529281   0.000000
   49       31.155223   0.000000
   50       31.552272   0.000000
   51       31.608359   0.000000
   52       32.006973   0.000000
   53       32.747745   0.000000
   54       33.003714   0.000000
   55       33.799803   0.000000
   56       33.800735   0.000000
   57       34.061806   0.000000
   58       34.114949   0.000000
   59       34.801272   0.000000
   60       35.076261   0.000000
   61       35.194881   0.000000
   62       35.621268   0.000000
   63       35.736688   0.000000
   64       37.036095   0.000000
   65       37.235011   0.000000
   66       38.046867   0.000000
   67       38.453633   0.000000
   68       38.757973   0.000000
   69       39.088861   0.000000
   70       39.392564   0.000000
   71       39.730305   0.000000
   72       41.176179   0.000000
   73       41.416714   0.000000
   74       41.432281   0.000000
   75       43.121726   0.000000
   76       43.171168   0.000000
   77       44.097455   0.000000
   78       44.503164   0.000000
   79       45.315639   0.000000
   80       45.477042   0.000000
   81       45.651054   0.000000
   82       46.014471   0.000000
   83       47.061089   0.000000
   84       47.212964   0.000000

  0.3333333E+00  0.8333333E-01  0.3742002E-15  0.1388889E-01
    1       -6.588529   1.000000
    2       -4.563827   1.000000
    3       -2.414815   1.000000
    4       -2.256960   1.000000
    5        0.713987   1.000000
    6        0.841319   1.000000
    7        2.839374   1.000000
    8        2.973344   1.000000
    9        3.446573   1.000000
   10        3.834569   1.000000
   11        4.227976   1.000000
   12        5.232623   1.000000
   13        5.364258   1.000000
   14        5.820810   1.000000
   15        6.740634   1.000000
   16        7.103261   1.000000
   17       10.773086   0.000000
   18       11.817224   0.000000
   19       11.985555   0.000000
   20       13.302945   0.000000
   21       13.579684   0.000000
   22       15.006248   0.000000
   23       15.196171   0.000000
   24       15.215716   0.000000
   25       16.755131   0.000000
   26       16.795687   0.000000
   27       18.303101   0.000000
   28       18.706021   0.000000
   29       18.907456   0.000000
   30       19.449787   0.000000
   31       19.938983   0.000000
   32       20.037994   0.000000
   33       20.343153   0.000000
   34       21.043581   0.000000
   35       21.733057   0.000000
   36       21.794280   0.000000
   37       22.912606   0.000000
   38       25.159523   0.000000
   39       25.397064   0.000000
   40       25.545054   0.000000
   41       26.101556   0.000000
   42       26.430819   0.000000