       N       E                     dE             d eps       ncg     rms          rms(c)
DAV:   1    -0.602612134445E+02   -0.60261E+02   -0.59507E-07 13024   0.193E-03
DAV:   2    -0.602612135030E+02   -0.58521E-07   -0.51092E-07 15632   0.217E-03
DAV:   3    -0.602612135060E+02   -0.30159E-08   -0.29269E-08 15680   0.395E-04
DAV:   4    -0.602612135061E+02   -0.14461E-09   -0.16809E-09 15104   0.999E-05
DAV:   5    -0.602612135061E+02   -0.90949E-11   -0.14753E-10 15056   0.304E-05    0.237E-03
DAV:   6    -0.602612134171E+02    0.88998E-07   -0.11964E-09 13644   0.248E-04
   1 F= -.60261213E+02 E0= -.60261213E+02  d E =0.000000E+00
 imaginary and real dielectric function
