 vasp.5.4.4.18Apr17-6-g9f103f2a35 (build Oct 13 2025 18:05:23) complex           
 executed on             LinuxGNU date 2025.10.27  16:31:06
 running on    1 total cores
 distrk:  each k-point on    1 cores,    1 groups
 distr:  one band on NCORES_PER_BAND=   1 cores,    1 groups


--------------------------------------------------------------------------------------------------------


 INCAR:
 POTCAR:    PAW_PBE Si 05Jan2001                  
 POTCAR:    PAW_PBE C 08Apr2002                   
 POTCAR:    PAW_PBE Si 05Jan2001                  
   VRHFIN =Si: s2p2                                                             
   LEXCH  = PE                                                                  
   EATOM  =   103.0669 eV,    7.5752 Ry                                         
                                                                                
   TITEL  = PAW_PBE Si 05Jan2001                                                
   LULTRA =        F    use ultrasoft PP ?                                      
   IUNSCR =        1    unscreen: 0-lin 1-nonlin 2-no                           
   RPACOR =    1.500    partial core radius                                     
   POMASS =   28.085; ZVAL   =    4.000    mass and valenz                      
   RCORE  =    1.900    outmost cutoff radius                                   
   RWIGS  =    2.480; RWIGS  =    1.312    wigner-seitz radius (au A)           
   ENMAX  =  245.345; ENMIN  =  184.009 eV                                      
   ICORE  =        2    local potential                                         
   LCOR   =        T    correct aug charges                                     
   LPAW   =        T    paw PP                                                  
   EAUG   =  322.069                                                            
   DEXC   =    0.000                                                            
   RMAX   =    1.950    core radius for proj-oper                               
   RAUG   =    1.300    factor for augmentation sphere                          
   RDEP   =    1.993    radius for radial grids                                 
   RDEPT  =    1.837    core radius for aug-charge                              
                                                                                
   Atomic configuration                                                         
    6 entries                                                                   
     n  l   j            E        occ.                                          
     1  0  0.50     -1785.8828   2.0000                                         
     2  0  0.50      -139.4969   2.0000                                         
     2  1  1.50       -95.5546   6.0000                                         
     3  0  0.50       -10.8127   2.0000                                         
     3  1  0.50        -4.0811   2.0000                                         
     3  2  1.50        -4.0817   0.0000                                         
   Description                                                                  
     l       E           TYP  RCUT    TYP  RCUT                                 
     0    -10.8127223     23  1.900                                             
     0     -7.6451159     23  1.900                                             
     1     -4.0811372     23  1.900                                             
     1      2.4879257     23  1.900                                             
     2     -4.0817478      7  1.900                                             
  local pseudopotential read in
  partial core-charges read in
  partial kinetic energy density read in
  atomic valenz-charges read in
  non local Contribution for L=           0  read in
    real space projection operators read in
  non local Contribution for L=           0  read in
    real space projection operators read in
  non local Contribution for L=           1  read in
    real space projection operators read in
  non local Contribution for L=           1  read in
    real space projection operators read in
    PAW grid and wavefunctions read in

   number of l-projection  operators is LMAX  =           4
   number of lm-projection operators is LMMAX =           8

 POTCAR:    PAW_PBE C 08Apr2002                   
   VRHFIN =C: s2p2                                                              
   LEXCH  = PE                                                                  
   EATOM  =   147.1560 eV,   10.8157 Ry                                         
                                                                                
   TITEL  = PAW_PBE C 08Apr2002                                                 
   LULTRA =        F    use ultrasoft PP ?                                      
   IUNSCR =        1    unscreen: 0-lin 1-nonlin 2-no                           
   RPACOR =    1.200    partial core radius                                     
   POMASS =   12.011; ZVAL   =    4.000    mass and valenz                      
   RCORE  =    1.500    outmost cutoff radius                                   
   RWIGS  =    1.630; RWIGS  =    0.863    wigner-seitz radius (au A)           
   ENMAX  =  400.000; ENMIN  =  300.000 eV                                      
   ICORE  =        2    local potential                                         
   LCOR   =        T    correct aug charges                                     
   LPAW   =        T    paw PP                                                  
   EAUG   =  644.873                                                            
   DEXC   =    0.000                                                            
   RMAX   =    1.529    core radius for proj-oper                               
   RAUG   =    1.300    factor for augmentation sphere                          
   RDEP   =    1.501    radius for radial grids                                 
   RDEPT  =    1.300    core radius for aug-charge                              
                                                                                
   Atomic configuration                                                         
    4 entries                                                                   
     n  l   j            E        occ.                                          
     1  0  0.50      -273.3789   2.0000                                         
     2  0  0.50       -13.7508   2.0000                                         
     2  1  0.50        -5.2854   2.0000                                         
     3  2  1.50        -5.4423   0.0000                                         
   Description                                                                  
     l       E           TYP  RCUT    TYP  RCUT                                 
     0    -13.7508458     23  1.200                                             
     0     -8.2022199     23  1.200                                             
     1     -5.2854383     23  1.500                                             
     1     34.0145650     23  1.500                                             
     2     -5.4423304      7  1.500                                             
  local pseudopotential read in
  partial core-charges read in
  partial kinetic energy density read in
  atomic valenz-charges read in
  non local Contribution for L=           0  read in
    real space projection operators read in
  non local Contribution for L=           0  read in
    real space projection operators read in
  non local Contribution for L=           1  read in
    real space projection operators read in
  non local Contribution for L=           1  read in
    real space projection operators read in
    PAW grid and wavefunctions read in

   number of l-projection  operators is LMAX  =           4
   number of lm-projection operators is LMMAX =           8


 ----------------------------------------------------------------------------- 
|                                                                             |
|  ADVICE TO THIS USER RUNNING 'VASP/VAMP'   (HEAR YOUR MASTER'S VOICE ...):  |
|                                                                             |
|      You have a (more or less) 'small supercell' and for smaller cells      |
|      it is recommended  to use the reciprocal-space projection scheme!      |
|      The real space optimization is not  efficient for small cells and it   |
|      is also less accurate ...                                              |
|      Therefore set LREAL=.FALSE. in the  INCAR file                         |
|                                                                             |
 ----------------------------------------------------------------------------- 

 Optimization of the real space projectors (new method)

 maximal supplied QI-value         = 19.84
 optimisation between [QCUT,QGAM] = [ 13.29, 26.59] = [ 49.49,197.96] Ry 
 Optimized for a Real-space Cutoff    1.12 Angstroem

   l    n(q)    QCUT    max X(q) W(low)/X(q) W(high)/X(q)  e(spline) 
   0      9    13.294   159.560    0.23E-03    0.88E-04    0.53E-07
   0      9    13.294   115.863    0.22E-03    0.87E-04    0.52E-07
   1      8    13.294    88.339    0.81E-04    0.17E-03    0.12E-06
   1      8    13.294    48.592    0.79E-04    0.17E-03    0.12E-06
 Optimization of the real space projectors (new method)

 maximal supplied QI-value         = 25.13
 optimisation between [QCUT,QGAM] = [ 13.32, 26.64] = [ 49.69,198.75] Ry 
 Optimized for a Real-space Cutoff    1.12 Angstroem

   l    n(q)    QCUT    max X(q) W(low)/X(q) W(high)/X(q)  e(spline) 
   0      9    13.321   115.676    0.24E-03    0.19E-03    0.20E-06
   0      9    13.321    87.132    0.24E-03    0.19E-03    0.20E-06
   1      8    13.321     4.429    0.92E-04    0.14E-03    0.13E-06
   1      8    13.321     2.733    0.71E-04    0.11E-03    0.13E-06
  PAW_PBE Si 05Jan2001                  :
 energy of atom  1       EATOM= -103.0669
 kinetic energy error for atom=    0.0003 (will be added to EATOM!!)
  PAW_PBE C 08Apr2002                   :
 energy of atom  2       EATOM= -147.1560
 kinetic energy error for atom=    0.0037 (will be added to EATOM!!)


 POSCAR: Si4 C4                                  
  positions in direct lattice
  No initial velocities read in
 exchange correlation table for  LEXCH =        8
   RHO(1)=    0.500       N(1)  =     2000
   RHO(2)=  100.500       N(2)  =     4000



--------------------------------------------------------------------------------------------------------


 ion  position               nearest neighbor table
   1  0.000  0.000  0.000-   6 1.90   8 1.90   5 1.90   7 1.90   2 3.10   2 3.10   3 3.10   4 3.10
                             3 3.10   4 3.10   4 3.10   4 3.10   3 3.10   3 3.10   2 3.10   2 3.10
   2  0.500  0.500  0.000-   6 1.90   8 1.90   7 1.90   5 1.90   1 3.10   1 3.10   3 3.10   4 3.10
                             3 3.10   3 3.10   3 3.10   4 3.10   4 3.10   4 3.10   1 3.10   1 3.10
   3  0.500  0.000  0.500-   5 1.90   7 1.90   8 1.90   6 1.90   4 3.10   4 3.10   1 3.10   2 3.10
                             2 3.10   1 3.10   2 3.10   1 3.10   2 3.10   1 3.10   4 3.10   4 3.10
   4  0.000  0.500  0.500-   5 1.90   7 1.90   6 1.90   8 1.90   3 3.10   3 3.10   1 3.10   2 3.10
                             1 3.10   1 3.10   1 3.10   2 3.10   2 3.10   2 3.10   3 3.10   3 3.10
   5  0.250  0.250  0.750-   3 1.90   4 1.90   1 1.90   2 1.90
   6  0.250  0.750  0.250-   1 1.90   2 1.90   4 1.90   3 1.90
   7  0.750  0.750  0.750-   3 1.90   4 1.90   2 1.90   1 1.90
   8  0.750  0.250  0.250-   1 1.90   2 1.90   3 1.90   4 1.90

  LATTYP: Found a simple cubic cell.
 ALAT       =     4.3780921432
  
  Lattice vectors:
  
 A1 = (   4.3780921432,  -0.0000000000,   0.0000000000)
 A2 = (   0.0000000000,   4.3780921432,   0.0000000000)
 A3 = (  -0.0000000000,   0.0000000000,   4.3780921432)


Analysis of symmetry for initial positions (statically):
=====================================================================
 Subroutine PRICEL returns following result:
 
  LATTYP: Found a face centered cubic cell.
 ALAT       =     4.3780921432
  
  Lattice vectors:
  
 A1 = (   2.1890460716,   2.1890460716,   0.0000000000)
 A2 = (   2.1890460716,  -0.0000000000,  -2.1890460716)
 A3 = (   0.0000000000,   2.1890460716,  -2.1890460716)
 
   4 primitive cells build up your supercell.
 

 Routine SETGRP: Setting up the symmetry group for a 
 simple cubic supercell.


 Subroutine GETGRP returns: Found 24 space group operations
 (whereof 24 operations were pure point group operations)
 out of a pool of 48 trial point group operations.


The static configuration has the point symmetry T_d .


Analysis of symmetry for dynamics (positions and initial velocities):
=====================================================================
 Subroutine PRICEL returns following result:
 
  LATTYP: Found a face centered cubic cell.
 ALAT       =     4.3780921432
  
  Lattice vectors:
  
 A1 = (   2.1890460716,   2.1890460716,   0.0000000000)
 A2 = (   2.1890460716,  -0.0000000000,  -2.1890460716)
 A3 = (   0.0000000000,   2.1890460716,  -2.1890460716)
 
   4 primitive cells build up your supercell.
 

 Routine SETGRP: Setting up the symmetry group for a 
 simple cubic supercell.


 Subroutine GETGRP returns: Found 24 space group operations
 (whereof 24 operations were pure point group operations)
 out of a pool of 48 trial point group operations.


The dynamic configuration has the point symmetry T_d .


 Subroutine INISYM returns: Found 24 space group operations
 (whereof 24 operations are pure point group operations),
 and found     4 'primitive' translations




Automatic generation of k-mesh.
 generate k-points for:   12   12   12
Space group operators:
 irot       det(A)        alpha          n_x          n_y          n_z        tau_x        tau_y        tau_z
    1     1.000000     0.000001     1.000000     0.000000     0.000000     0.000000     0.000000    -0.000000
    2     1.000000   120.000000    -0.577350    -0.577350    -0.577350     0.000000     0.000000    -0.000000
    3     1.000000   120.000000     0.577350     0.577350     0.577350     0.000000     0.000000    -0.000000
    4    -1.000000    90.000000     0.000000     0.000000    -1.000000     0.000000     0.000000    -0.000000
    5    -1.000000   180.000000     0.000000    -0.707107    -0.707107     0.000000     0.000000    -0.000000
    6    -1.000000    90.000000     0.000000     1.000000     0.000000     0.000000     0.000000    -0.000000
    7     1.000000   180.000000    -0.000000    -0.000000     1.000000     0.000000     0.000000    -0.000000
    8     1.000000   120.000000    -0.577350     0.577350     0.577350     0.000000     0.000000    -0.000000
    9     1.000000   120.000000    -0.577350     0.577350    -0.577350     0.000000     0.000000    -0.000000
   10    -1.000000    90.000000    -0.000000    -0.000000     1.000000     0.000000     0.000000    -0.000000
   11    -1.000000    90.000000    -1.000000     0.000000    -0.000000     0.000000     0.000000    -0.000000
   12    -1.000000   180.000000    -0.707107     0.000000    -0.707107     0.000000     0.000000    -0.000000
   13     1.000000   120.000000     0.577350    -0.577350     0.577350     0.000000     0.000000    -0.000000
   14     1.000000   120.000000    -0.577350    -0.577350     0.577350     0.000000     0.000000    -0.000000
   15     1.000000   180.000000     1.000000    -0.000000     0.000000     0.000000     0.000000    -0.000000
   16    -1.000000    90.000000    -0.000000    -1.000000     0.000000     0.000000     0.000000    -0.000000
   17    -1.000000   180.000000     0.707107     0.707107     0.000000     0.000000     0.000000    -0.000000
   18    -1.000000    90.000000     1.000000    -0.000000    -0.000000     0.000000     0.000000    -0.000000
   19     1.000000   120.000000     0.577350    -0.577350    -0.577350     0.000000     0.000000    -0.000000
   20     1.000000   180.000000     0.000000     1.000000     0.000000     0.000000     0.000000    -0.000000
   21     1.000000   120.000000     0.577350     0.577350    -0.577350     0.000000     0.000000    -0.000000
   22    -1.000000   180.000000    -0.000000    -0.707107     0.707107     0.000000     0.000000    -0.000000
   23    -1.000000   180.000000     0.707107    -0.707107     0.000000     0.000000     0.000000    -0.000000
   24    -1.000000   180.000000     0.707107    -0.000000    -0.707107     0.000000     0.000000    -0.000000
 
 Subroutine IBZKPT returns following result:
 ===========================================
 
 Found     84 irreducible k-points:
 
 Following reciprocal coordinates:
            Coordinates               Weight
  0.000000  0.000000  0.000000      1.000000
  0.083333  0.000000  0.000000      6.000000
  0.166667  0.000000  0.000000      6.000000
  0.250000  0.000000  0.000000      6.000000
  0.333333  0.000000  0.000000      6.000000
  0.416667  0.000000  0.000000      6.000000
  0.500000  0.000000  0.000000      3.000000
  0.083333  0.083333  0.000000     12.000000
  0.166667  0.083333  0.000000     24.000000
  0.250000  0.083333  0.000000     24.000000
  0.333333  0.083333  0.000000     24.000000
  0.416667  0.083333  0.000000     24.000000
  0.500000  0.083333  0.000000     12.000000
  0.166667  0.166667  0.000000     12.000000
  0.250000  0.166667  0.000000     24.000000
  0.333333  0.166667  0.000000     24.000000
  0.416667  0.166667  0.000000     24.000000
  0.500000  0.166667  0.000000     12.000000
  0.250000  0.250000  0.000000     12.000000
  0.333333  0.250000  0.000000     24.000000
  0.416667  0.250000  0.000000     24.000000
  0.500000  0.250000  0.000000     12.000000
  0.333333  0.333333  0.000000     12.000000
  0.416667  0.333333  0.000000     24.000000
  0.500000  0.333333  0.000000     12.000000
  0.416667  0.416667  0.000000     12.000000
  0.500000  0.416667  0.000000     12.000000
  0.500000  0.500000  0.000000      3.000000
  0.083333  0.083333  0.083333      8.000000
  0.166667  0.083333  0.083333     24.000000
  0.250000  0.083333  0.083333     24.000000
  0.333333  0.083333  0.083333     24.000000
  0.416667  0.083333  0.083333     24.000000
  0.500000  0.083333  0.083333     12.000000
  0.166667  0.166667  0.083333     24.000000
  0.250000  0.166667  0.083333     48.000000
  0.333333  0.166667  0.083333     48.000000
  0.416667  0.166667  0.083333     48.000000
  0.500000  0.166667  0.083333     24.000000
  0.250000  0.250000  0.083333     24.000000
  0.333333  0.250000  0.083333     48.000000
  0.416667  0.250000  0.083333     48.000000
  0.500000  0.250000  0.083333     24.000000
  0.333333  0.333333  0.083333     24.000000
  0.416667  0.333333  0.083333     48.000000
  0.500000  0.333333  0.083333     24.000000
  0.416667  0.416667  0.083333     24.000000
  0.500000  0.416667  0.083333     24.000000
  0.500000  0.500000  0.083333      6.000000
  0.166667  0.166667  0.166667      8.000000
  0.250000  0.166667  0.166667     24.000000
  0.333333  0.166667  0.166667     24.000000
  0.416667  0.166667  0.166667     24.000000
  0.500000  0.166667  0.166667     12.000000
  0.250000  0.250000  0.166667     24.000000
  0.333333  0.250000  0.166667     48.000000
  0.416667  0.250000  0.166667     48.000000
  0.500000  0.250000  0.166667     24.000000
  0.333333  0.333333  0.166667     24.000000
  0.416667  0.333333  0.166667     48.000000
  0.500000  0.333333  0.166667     24.000000
  0.416667  0.416667  0.166667     24.000000
  0.500000  0.416667  0.166667     24.000000
  0.500000  0.500000  0.166667      6.000000
  0.250000  0.250000  0.250000      8.000000
  0.333333  0.250000  0.250000     24.000000
  0.416667  0.250000  0.250000     24.000000
  0.500000  0.250000  0.250000     12.000000
  0.333333  0.333333  0.250000     24.000000
  0.416667  0.333333  0.250000     48.000000
  0.500000  0.333333  0.250000     24.000000
  0.416667  0.416667  0.250000     24.000000
  0.500000  0.416667  0.250000     24.000000
  0.500000  0.500000  0.250000      6.000000
  0.333333  0.333333  0.333333      8.000000
  0.416667  0.333333  0.333333     24.000000
  0.500000  0.333333  0.333333     12.000000
  0.416667  0.416667  0.333333     24.000000
  0.500000  0.416667  0.333333     24.000000
  0.500000  0.500000  0.333333      6.000000
  0.416667  0.416667  0.416667      8.000000
  0.500000  0.416667  0.416667     12.000000
  0.500000  0.500000  0.416667      6.000000
  0.500000  0.500000  0.500000      1.000000
 
 Following cartesian coordinates:
            Coordinates               Weight
  0.000000  0.000000  0.000000      1.000000
  0.019034  0.000000  0.000000      6.000000
  0.038068  0.000000  0.000000      6.000000
  0.057102  0.000000  0.000000      6.000000
  0.076137  0.000000  0.000000      6.000000
  0.095171  0.000000  0.000000      6.000000
  0.114205  0.000000  0.000000      3.000000
  0.019034  0.019034  0.000000     12.000000
  0.038068  0.019034  0.000000     24.000000
  0.057102  0.019034  0.000000     24.000000
  0.076137  0.019034  0.000000     24.000000
  0.095171  0.019034  0.000000     24.000000
  0.114205  0.019034  0.000000     12.000000
  0.038068  0.038068  0.000000     12.000000
  0.057102  0.038068  0.000000     24.000000
  0.076137  0.038068  0.000000     24.000000
  0.095171  0.038068  0.000000     24.000000
  0.114205  0.038068  0.000000     12.000000
  0.057102  0.057102  0.000000     12.000000
  0.076137  0.057102  0.000000     24.000000
  0.095171  0.057102  0.000000     24.000000
  0.114205  0.057102  0.000000     12.000000
  0.076137  0.076137  0.000000     12.000000
  0.095171  0.076137  0.000000     24.000000
  0.114205  0.076137  0.000000     12.000000
  0.095171  0.095171  0.000000     12.000000
  0.114205  0.095171  0.000000     12.000000
  0.114205  0.114205  0.000000      3.000000
  0.019034  0.019034  0.019034      8.000000
  0.038068  0.019034  0.019034     24.000000
  0.057102  0.019034  0.019034     24.000000
  0.076137  0.019034  0.019034     24.000000
  0.095171  0.019034  0.019034     24.000000
  0.114205  0.019034  0.019034     12.000000
  0.038068  0.038068  0.019034     24.000000
  0.057102  0.038068  0.019034     48.000000
  0.076137  0.038068  0.019034     48.000000
  0.095171  0.038068  0.019034     48.000000
  0.114205  0.038068  0.019034     24.000000
  0.057102  0.057102  0.019034     24.000000
  0.076137  0.057102  0.019034     48.000000
  0.095171  0.057102  0.019034     48.000000
  0.114205  0.057102  0.019034     24.000000
  0.076137  0.076137  0.019034     24.000000
  0.095171  0.076137  0.019034     48.000000
  0.114205  0.076137  0.019034     24.000000
  0.095171  0.095171  0.019034     24.000000
  0.114205  0.095171  0.019034     24.000000
  0.114205  0.114205  0.019034      6.000000
  0.038068  0.038068  0.038068      8.000000
  0.057102  0.038068  0.038068     24.000000
  0.076137  0.038068  0.038068     24.000000
  0.095171  0.038068  0.038068     24.000000
  0.114205  0.038068  0.038068     12.000000
  0.057102  0.057102  0.038068     24.000000
  0.076137  0.057102  0.038068     48.000000
  0.095171  0.057102  0.038068     48.000000
  0.114205  0.057102  0.038068     24.000000
  0.076137  0.076137  0.038068     24.000000
  0.095171  0.076137  0.038068     48.000000
  0.114205  0.076137  0.038068     24.000000
  0.095171  0.095171  0.038068     24.000000
  0.114205  0.095171  0.038068     24.000000
  0.114205  0.114205  0.038068      6.000000
  0.057102  0.057102  0.057102      8.000000
  0.076137  0.057102  0.057102     24.000000
  0.095171  0.057102  0.057102     24.000000
  0.114205  0.057102  0.057102     12.000000
  0.076137  0.076137  0.057102     24.000000
  0.095171  0.076137  0.057102     48.000000
  0.114205  0.076137  0.057102     24.000000
  0.095171  0.095171  0.057102     24.000000
  0.114205  0.095171  0.057102     24.000000
  0.114205  0.114205  0.057102      6.000000
  0.076137  0.076137  0.076137      8.000000
  0.095171  0.076137  0.076137     24.000000
  0.114205  0.076137  0.076137     12.000000
  0.095171  0.095171  0.076137     24.000000
  0.114205  0.095171  0.076137     24.000000
  0.114205  0.114205  0.076137      6.000000
  0.095171  0.095171  0.095171      8.000000
  0.114205  0.095171  0.095171     12.000000
  0.114205  0.114205  0.095171      6.000000
  0.114205  0.114205  0.114205      1.000000
 
 TETIRR: Found    854 inequivalent tetrahedra from    10368


--------------------------------------------------------------------------------------------------------




 Dimension of arrays:
   k-points           NKPTS =     84   k-points in BZ     NKDIM =     84   number of bands    NBANDS=     84
   number of dos      NEDOS =   2001   number of ions     NIONS =      8
   non local maximal  LDIM  =      4   non local SUM 2l+1 LMDIM =      8
   total plane-waves  NPLWV =  64000
   max r-space proj   IRMAX =   4577   max aug-charges    IRDMAX=  25696
   dimension x,y,z NGX =    40 NGY =   40 NGZ =   40
   dimension x,y,z NGXF=    80 NGYF=   80 NGZF=   80
   support grid    NGXF=    80 NGYF=   80 NGZF=   80
   ions per type =               4   4
   NGX,Y,Z   is equivalent  to a cutoff of  15.19, 15.19, 15.19 a.u.
   NGXF,Y,Z  is equivalent  to a cutoff of  30.38, 30.38, 30.38 a.u.

 SYSTEM =  unknown system                          
 POSCAR =  Si4 C4                                  

 Startparameter for this run:
   NWRITE =      2    write-flag & timer
   PREC   = accura    normal or accurate (medium, high low for compatibility)
   ISTART =      1    job   : 0-new  1-cont  2-samecut
   ICHARG =      0    charge: 1-file 2-atom 10-const
   ISPIN  =      1    spin polarized calculation?
   LNONCOLLINEAR =      F non collinear calculations
   LSORBIT =      F    spin-orbit coupling
   INIWAV =      1    electr: 0-lowe 1-rand  2-diag
   LASPH  =      F    aspherical Exc in radial PAW
   METAGGA=      F    non-selfconsistent MetaGGA calc.

 Electronic Relaxation 1
   ENCUT  =  680.0 eV  49.98 Ry    7.07 a.u.   9.31  9.31  9.31*2*pi/ulx,y,z
   ENINI  =  680.0     initial cutoff
   ENAUG  =  644.9 eV  augmentation charge cutoff
   NELM   =     60;   NELMIN=  4; NELMDL= -5     # of ELM steps 
   EDIFF  = 0.1E-04   stopping-criterion for ELM
   LREAL  =      T    real-space projection
   NLSPLINE    = F    spline interpolate recip. space projectors
   LCOMPAT=      F    compatible to vasp.4.4
   GGA_COMPAT  = T    GGA compatible to vasp.4.4-vasp.4.6
   LMAXPAW     = -100 max onsite density
   LMAXMIX     =    2 max onsite mixed and CHGCAR
   VOSKOWN=      0    Vosko Wilk Nusair interpolation
   ROPT   =   -0.00025  -0.00025
 Ionic relaxation
   EDIFFG = 0.1E-03   stopping-criterion for IOM
   NSW    =      0    number of steps for IOM
   NBLOCK =      1;   KBLOCK =      1    inner block; outer block 
   IBRION =     -1    ionic relax: 0-MD 1-quasi-New 2-CG
   NFREE  =      0    steps in history (QN), initial steepest desc. (CG)
   ISIF   =      2    stress and relaxation
   IWAVPR =     10    prediction:  0-non 1-charg 2-wave 3-comb
   ISYM   =      2    0-nonsym 1-usesym 2-fastsym
   LCORR  =      T    Harris-Foulkes like correction to forces

   POTIM  = 0.5000    time-step for ionic-motion
   TEIN   =    0.0    initial temperature
   TEBEG  =    0.0;   TEEND  =   0.0 temperature during run
   SMASS  =  -3.00    Nose mass-parameter (am)
   estimated Nose-frequenzy (Omega)   =  0.10E-29 period in steps =****** mass=  -0.438E-27a.u.
   SCALEE = 1.0000    scale energy and forces
   NPACO  =    256;   APACO  = 16.0  distance and # of slots for P.C.
   PSTRESS=    0.0 pullay stress

  Mass of Ions in am
   POMASS =  28.09 12.01
  Ionic Valenz
   ZVAL   =   4.00  4.00
  Atomic Wigner-Seitz radii
   RWIGS  =  -1.00 -1.00
  virtual crystal weights 
   VCA    =   1.00  1.00
   NELECT =      32.0000    total number of electrons
   NUPDOWN=      -1.0000    fix difference up-down

 DOS related values:
   EMIN   =  10.00;   EMAX   =-10.00  energy-range for DOS
   EFERMI =   0.00
   ISMEAR =    -5;   SIGMA  =   0.20  broadening in eV -4-tet -1-fermi 0-gaus

 Electronic relaxation 2 (details)
   IALGO  =     38    algorithm
   LDIAG  =      T    sub-space diagonalisation (order eigenvalues)
   LSUBROT=      F    optimize rotation matrix (better conditioning)
   TURBO    =      0    0=normal 1=particle mesh
   IRESTART =      0    0=no restart 2=restart with 2 vectors
   NREBOOT  =      0    no. of reboots
   NMIN     =      0    reboot dimension
   EREF     =   0.00    reference energy to select bands
   IMIX   =      4    mixing-type and parameters
     AMIX     =   0.40;   BMIX     =  1.00
     AMIX_MAG =   1.60;   BMIX_MAG =  1.00
     AMIN     =   0.10
     WC   =   100.;   INIMIX=   1;  MIXPRE=   1;  MAXMIX= -45

 Intra band minimization:
   WEIMIN = 0.0000     energy-eigenvalue tresh-hold
   EBREAK =  0.30E-07  absolut break condition
   DEPER  =   0.30     relativ break condition  

   TIME   =   0.40     timestep for ELM

  volume/ion in A,a.u.               =      10.49        70.79
  Fermi-wavevector in a.u.,A,eV,Ry     =   1.187153  2.243393 19.175120  1.409332
  Thomas-Fermi vector in A             =   2.323310

 Write flags
   LWAVE        =      F    write WAVECAR
   LDOWNSAMPLE  =      F    k-point downsampling of WAVECAR
   LCHARG       =      F    write CHGCAR
   LVTOT        =      F    write LOCPOT, total local potential
   LVHAR        =      F    write LOCPOT, Hartree potential only
   LELF         =      F    write electronic localiz. function (ELF)
   LORBIT       =     10    0 simple, 1 ext, 2 COOP (PROOUT), +10 PAW based schemes


 Dipole corrections
   LMONO  =      F    monopole corrections only (constant potential shift)
   LDIPOL =      F    correct potential (dipole corrections)
   IDIPOL =      0    1-x, 2-y, 3-z, 4-all directions 
   EPSILON=  1.0000000 bulk dielectric constant

 Exchange correlation treatment:
   GGA     =    --    GGA type
   LEXCH   =     8    internal setting for exchange type
   VOSKOWN=      0    Vosko Wilk Nusair interpolation
   LHFCALC =     F    Hartree Fock is set to
   LHFONE  =     F    Hartree Fock one center treatment
   AEXX    =    0.0000 exact exchange contribution

 Linear response parameters
   LEPSILON=     F    determine dielectric tensor
   LRPA    =     F    only Hartree local field effects (RPA)
   LNABLA  =     F    use nabla operator in PAW spheres
   LVEL    =     F    velocity operator in full k-point grid
   LINTERFAST=   F  fast interpolation
   KINTER  =     0    interpolate to denser k-point grid
   CSHIFT  =0.1000    complex shift for real part using Kramers Kronig
   OMEGAMAX=  -1.0    maximum frequency
   DEG_THRESHOLD= 0.2000000E-02 threshold for treating states as degnerate
   RTIME   =   -0.100 relaxation time in fs
  (WPLASMAI=    0.000 imaginary part of plasma frequency in eV, 0.658/RTIME)
   DFIELD  = 0.0000000 0.0000000 0.0000000 field for delta impulse in time

 Orbital magnetization related:
   ORBITALMAG=     F  switch on orbital magnetization
   LCHIMAG   =     F  perturbation theory with respect to B field
   DQ        =  0.001000  dq finite difference perturbation B field
   LLRAUG    =     F  two centre corrections for induced B field



--------------------------------------------------------------------------------------------------------


 Static calculation
 charge density and potential will be updated during run
 non-spin polarized calculation
 Variant of blocked Davidson
 Davidson routine will perform the subspace rotation
 perform sub-space diagonalisation
    after iterative eigenvector-optimisation
 modified Broyden-mixing scheme, WC =      100.0
 initial mixing is a Kerker type mixing with AMIX =  0.4000 and BMIX =      1.0000
 Hartree-type preconditioning will be used
 using additional bands           68
 real space projection scheme for non local part
 use partial core corrections
 calculate Harris-corrections to forces   (improved forces if not selfconsistent)
 use gradient corrections 
 use of overlap-Matrix (Vanderbilt PP)
 Fermi weights with tetrahedron method with Bloechl corrections


--------------------------------------------------------------------------------------------------------


  energy-cutoff  :      680.00
  volume of cell :       83.92
      direct lattice vectors                 reciprocal lattice vectors
     4.378092143 -0.000000000  0.000000000     0.228409994 -0.000000000  0.000000000
     0.000000000  4.378092143  0.000000000     0.000000000  0.228409994  0.000000000
    -0.000000000  0.000000000  4.378092143    -0.000000000 -0.000000000  0.228409994

  length of vectors
     4.378092143  4.378092143  4.378092143     0.228409994  0.228409994  0.228409994



 old parameters found on file WAVECAR:
  energy-cutoff  :      680.00
  volume of cell :       83.92
      direct lattice vectors                 reciprocal lattice vectors
     4.378092143 -0.000000000  0.000000000     0.228409994 -0.000000000  0.000000000
     0.000000000  4.378092143  0.000000000     0.000000000  0.228409994  0.000000000
    -0.000000000  0.000000000  4.378092143    -0.000000000 -0.000000000  0.228409994

  length of vectors


 k-points in units of 2pi/SCALE and weight: read from INCAR                         
   0.00000000  0.00000000  0.00000000       0.001
   0.01903417  0.00000000  0.00000000       0.003
   0.03806833  0.00000000  0.00000000       0.003
   0.05710250  0.00000000  0.00000000       0.003
   0.07613666  0.00000000  0.00000000       0.003
   0.09517083  0.00000000  0.00000000       0.003
   0.11420500  0.00000000  0.00000000       0.002
   0.01903417  0.01903417  0.00000000       0.007
   0.03806833  0.01903417  0.00000000       0.014
   0.05710250  0.01903417  0.00000000       0.014
   0.07613666  0.01903417  0.00000000       0.014
   0.09517083  0.01903417  0.00000000       0.014
   0.11420500  0.01903417  0.00000000       0.007
   0.03806833  0.03806833  0.00000000       0.007
   0.05710250  0.03806833  0.00000000       0.014
   0.07613666  0.03806833  0.00000000       0.014
   0.09517083  0.03806833  0.00000000       0.014
   0.11420500  0.03806833  0.00000000       0.007
   0.05710250  0.05710250  0.00000000       0.007
   0.07613666  0.05710250  0.00000000       0.014
   0.09517083  0.05710250  0.00000000       0.014
   0.11420500  0.05710250  0.00000000       0.007
   0.07613666  0.07613666  0.00000000       0.007
   0.09517083  0.07613666  0.00000000       0.014
   0.11420500  0.07613666  0.00000000       0.007
   0.09517083  0.09517083  0.00000000       0.007
   0.11420500  0.09517083  0.00000000       0.007
   0.11420500  0.11420500  0.00000000       0.002
   0.01903417  0.01903417  0.01903417       0.005
   0.03806833  0.01903417  0.01903417       0.014
   0.05710250  0.01903417  0.01903417       0.014
   0.07613666  0.01903417  0.01903417       0.014
   0.09517083  0.01903417  0.01903417       0.014
   0.11420500  0.01903417  0.01903417       0.007
   0.03806833  0.03806833  0.01903417       0.014
   0.05710250  0.03806833  0.01903417       0.028
   0.07613666  0.03806833  0.01903417       0.028
   0.09517083  0.03806833  0.01903417       0.028
   0.11420500  0.03806833  0.01903417       0.014
   0.05710250  0.05710250  0.01903417       0.014
   0.07613666  0.05710250  0.01903417       0.028
   0.09517083  0.05710250  0.01903417       0.028
   0.11420500  0.05710250  0.01903417       0.014
   0.07613666  0.07613666  0.01903417       0.014
   0.09517083  0.07613666  0.01903417       0.028
   0.11420500  0.07613666  0.01903417       0.014
   0.09517083  0.09517083  0.01903417       0.014
   0.11420500  0.09517083  0.01903417       0.014
   0.11420500  0.11420500  0.01903417       0.003
   0.03806833  0.03806833  0.03806833       0.005
   0.05710250  0.03806833  0.03806833       0.014
   0.07613666  0.03806833  0.03806833       0.014
   0.09517083  0.03806833  0.03806833       0.014
   0.11420500  0.03806833  0.03806833       0.007
   0.05710250  0.05710250  0.03806833       0.014
   0.07613666  0.05710250  0.03806833       0.028
   0.09517083  0.05710250  0.03806833       0.028
   0.11420500  0.05710250  0.03806833       0.014
   0.07613666  0.07613666  0.03806833       0.014
   0.09517083  0.07613666  0.03806833       0.028
   0.11420500  0.07613666  0.03806833       0.014
   0.09517083  0.09517083  0.03806833       0.014
   0.11420500  0.09517083  0.03806833       0.014
   0.11420500  0.11420500  0.03806833       0.003
   0.05710250  0.05710250  0.05710250       0.005
   0.07613666  0.05710250  0.05710250       0.014
   0.09517083  0.05710250  0.05710250       0.014
   0.11420500  0.05710250  0.05710250       0.007
   0.07613666  0.07613666  0.05710250       0.014
   0.09517083  0.07613666  0.05710250       0.028
   0.11420500  0.07613666  0.05710250       0.014
   0.09517083  0.09517083  0.05710250       0.014
   0.11420500  0.09517083  0.05710250       0.014
   0.11420500  0.11420500  0.05710250       0.003
   0.07613666  0.07613666  0.07613666       0.005
   0.09517083  0.07613666  0.07613666       0.014
   0.11420500  0.07613666  0.07613666       0.007
   0.09517083  0.09517083  0.07613666       0.014
   0.11420500  0.09517083  0.07613666       0.014
   0.11420500  0.11420500  0.07613666       0.003
   0.09517083  0.09517083  0.09517083       0.005
   0.11420500  0.09517083  0.09517083       0.007
   0.11420500  0.11420500  0.09517083       0.003
   0.11420500  0.11420500  0.11420500       0.001

 k-points in reciprocal lattice and weights: read from INCAR                         
   0.00000000  0.00000000  0.00000000       0.001
   0.08333333  0.00000000  0.00000000       0.003
   0.16666667  0.00000000  0.00000000       0.003
   0.25000000  0.00000000  0.00000000       0.003
   0.33333333  0.00000000  0.00000000       0.003
   0.41666667  0.00000000  0.00000000       0.003
   0.50000000  0.00000000  0.00000000       0.002
   0.08333333  0.08333333  0.00000000       0.007
   0.16666667  0.08333333  0.00000000       0.014
   0.25000000  0.08333333  0.00000000       0.014
   0.33333333  0.08333333  0.00000000       0.014
   0.41666667  0.08333333  0.00000000       0.014
   0.50000000  0.08333333  0.00000000       0.007
   0.16666667  0.16666667  0.00000000       0.007
   0.25000000  0.16666667  0.00000000       0.014
   0.33333333  0.16666667  0.00000000       0.014
   0.41666667  0.16666667  0.00000000       0.014
   0.50000000  0.16666667  0.00000000       0.007
   0.25000000  0.25000000  0.00000000       0.007
   0.33333333  0.25000000  0.00000000       0.014
   0.41666667  0.25000000  0.00000000       0.014
   0.50000000  0.25000000  0.00000000       0.007
   0.33333333  0.33333333  0.00000000       0.007
   0.41666667  0.33333333  0.00000000       0.014
   0.50000000  0.33333333  0.00000000       0.007
   0.41666667  0.41666667  0.00000000       0.007
   0.50000000  0.41666667  0.00000000       0.007
   0.50000000  0.50000000  0.00000000       0.002
   0.08333333  0.08333333  0.08333333       0.005
   0.16666667  0.08333333  0.08333333       0.014
   0.25000000  0.08333333  0.08333333       0.014
   0.33333333  0.08333333  0.08333333       0.014
   0.41666667  0.08333333  0.08333333       0.014
   0.50000000  0.08333333  0.08333333       0.007
   0.16666667  0.16666667  0.08333333       0.014
   0.25000000  0.16666667  0.08333333       0.028
   0.33333333  0.16666667  0.08333333       0.028
   0.41666667  0.16666667  0.08333333       0.028
   0.50000000  0.16666667  0.08333333       0.014
   0.25000000  0.25000000  0.08333333       0.014
   0.33333333  0.25000000  0.08333333       0.028
   0.41666667  0.25000000  0.08333333       0.028
   0.50000000  0.25000000  0.08333333       0.014
   0.33333333  0.33333333  0.08333333       0.014
   0.41666667  0.33333333  0.08333333       0.028
   0.50000000  0.33333333  0.08333333       0.014
   0.41666667  0.41666667  0.08333333       0.014
   0.50000000  0.41666667  0.08333333       0.014
   0.50000000  0.50000000  0.08333333       0.003
   0.16666667  0.16666667  0.16666667       0.005
   0.25000000  0.16666667  0.16666667       0.014
   0.33333333  0.16666667  0.16666667       0.014
   0.41666667  0.16666667  0.16666667       0.014
   0.50000000  0.16666667  0.16666667       0.007
   0.25000000  0.25000000  0.16666667       0.014
   0.33333333  0.25000000  0.16666667       0.028
   0.41666667  0.25000000  0.16666667       0.028
   0.50000000  0.25000000  0.16666667       0.014
   0.33333333  0.33333333  0.16666667       0.014
   0.41666667  0.33333333  0.16666667       0.028
   0.50000000  0.33333333  0.16666667       0.014
   0.41666667  0.41666667  0.16666667       0.014
   0.50000000  0.41666667  0.16666667       0.014
   0.50000000  0.50000000  0.16666667       0.003
   0.25000000  0.25000000  0.25000000       0.005
   0.33333333  0.25000000  0.25000000       0.014
   0.41666667  0.25000000  0.25000000       0.014
   0.50000000  0.25000000  0.25000000       0.007
   0.33333333  0.33333333  0.25000000       0.014
   0.41666667  0.33333333  0.25000000       0.028
   0.50000000  0.33333333  0.25000000       0.014
   0.41666667  0.41666667  0.25000000       0.014
   0.50000000  0.41666667  0.25000000       0.014
   0.50000000  0.50000000  0.25000000       0.003
   0.33333333  0.33333333  0.33333333       0.005
   0.41666667  0.33333333  0.33333333       0.014
   0.50000000  0.33333333  0.33333333       0.007
   0.41666667  0.41666667  0.33333333       0.014
   0.50000000  0.41666667  0.33333333       0.014
   0.50000000  0.50000000  0.33333333       0.003
   0.41666667  0.41666667  0.41666667       0.005
   0.50000000  0.41666667  0.41666667       0.007
   0.50000000  0.50000000  0.41666667       0.003
   0.50000000  0.50000000  0.50000000       0.001

 position of ions in fractional coordinates (direct lattice) 
   0.00000000  0.00000000  0.00000000
   0.50000000  0.50000000  0.00000000
   0.50000000  0.00000000  0.50000000
   0.00000000  0.50000000  0.50000000
   0.25000000  0.25000000  0.75000000
   0.25000000  0.75000000  0.25000000
   0.75000000  0.75000000  0.75000000
   0.75000000  0.25000000  0.25000000

 position of ions in cartesian coordinates  (Angst):
   0.00000000  0.00000000  0.00000000
   2.18904607  2.18904607  0.00000000
   2.18904607  0.00000000  2.18904607
   0.00000000  2.18904607  2.18904607
   1.09452304  1.09452304  3.28356911
   1.09452304  3.28356911  1.09452304
   3.28356911  3.28356911  3.28356911
   3.28356911  1.09452304  1.09452304



--------------------------------------------------------------------------------------------------------


 k-point  1 :   0.0000 0.0000 0.0000  plane waves:    3407
 k-point  2 :   0.0833 0.0000 0.0000  plane waves:    3371
 k-point  3 :   0.1667 0.0000 0.0000  plane waves:    3367
 k-point  4 :   0.2500 0.0000 0.0000  plane waves:    3415
 k-point  5 :   0.3333 0.0000 0.0000  plane waves:    3382
 k-point  6 :   0.4167 0.0000 0.0000  plane waves:    3378
 k-point  7 :   0.5000 0.0000 0.0000  plane waves:    3394
 k-point  8 :   0.0833 0.0833 0.0000  plane waves:    3367
 k-point  9 :   0.1667 0.0833 0.0000  plane waves:    3363
 k-point 10 :   0.2500 0.0833 0.0000  plane waves:    3392
 k-point 11 :   0.3333 0.0833 0.0000  plane waves:    3401
 k-point 12 :   0.4167 0.0833 0.0000  plane waves:    3389
 k-point 13 :   0.5000 0.0833 0.0000  plane waves:    3392
 k-point 14 :   0.1667 0.1667 0.0000  plane waves:    3381
 k-point 15 :   0.2500 0.1667 0.0000  plane waves:    3387
 k-point 16 :   0.3333 0.1667 0.0000  plane waves:    3375
 k-point 17 :   0.4167 0.1667 0.0000  plane waves:    3376
 k-point 18 :   0.5000 0.1667 0.0000  plane waves:    3386
 k-point 19 :   0.2500 0.2500 0.0000  plane waves:    3393
 k-point 20 :   0.3333 0.2500 0.0000  plane waves:    3370
 k-point 21 :   0.4167 0.2500 0.0000  plane waves:    3379
 k-point 22 :   0.5000 0.2500 0.0000  plane waves:    3370
 k-point 23 :   0.3333 0.3333 0.0000  plane waves:    3387
 k-point 24 :   0.4167 0.3333 0.0000  plane waves:    3378
 k-point 25 :   0.5000 0.3333 0.0000  plane waves:    3368
 k-point 26 :   0.4167 0.4167 0.0000  plane waves:    3381
 k-point 27 :   0.5000 0.4167 0.0000  plane waves:    3380
 k-point 28 :   0.5000 0.5000 0.0000  plane waves:    3388
 k-point 29 :   0.0833 0.0833 0.0833  plane waves:    3362
 k-point 30 :   0.1667 0.0833 0.0833  plane waves:    3374
 k-point 31 :   0.2500 0.0833 0.0833  plane waves:    3377
 k-point 32 :   0.3333 0.0833 0.0833  plane waves:    3393
 k-point 33 :   0.4167 0.0833 0.0833  plane waves:    3388
 k-point 34 :   0.5000 0.0833 0.0833  plane waves:    3394
 k-point 35 :   0.1667 0.1667 0.0833  plane waves:    3382
 k-point 36 :   0.2500 0.1667 0.0833  plane waves:    3382
 k-point 37 :   0.3333 0.1667 0.0833  plane waves:    3386
 k-point 38 :   0.4167 0.1667 0.0833  plane waves:    3381
 k-point 39 :   0.5000 0.1667 0.0833  plane waves:    3390
 k-point 40 :   0.2500 0.2500 0.0833  plane waves:    3383
 k-point 41 :   0.3333 0.2500 0.0833  plane waves:    3377
 k-point 42 :   0.4167 0.2500 0.0833  plane waves:    3378
 k-point 43 :   0.5000 0.2500 0.0833  plane waves:    3380
 k-point 44 :   0.3333 0.3333 0.0833  plane waves:    3380
 k-point 45 :   0.4167 0.3333 0.0833  plane waves:    3384
 k-point 46 :   0.5000 0.3333 0.0833  plane waves:    3378
 k-point 47 :   0.4167 0.4167 0.0833  plane waves:    3381
 k-point 48 :   0.5000 0.4167 0.0833  plane waves:    3382
 k-point 49 :   0.5000 0.5000 0.0833  plane waves:    3368
 k-point 50 :   0.1667 0.1667 0.1667  plane waves:    3380
 k-point 51 :   0.2500 0.1667 0.1667  plane waves:    3384
 k-point 52 :   0.3333 0.1667 0.1667  plane waves:    3380
 k-point 53 :   0.4167 0.1667 0.1667  plane waves:    3383
 k-point 54 :   0.5000 0.1667 0.1667  plane waves:    3378
 k-point 55 :   0.2500 0.2500 0.1667  plane waves:    3380
 k-point 56 :   0.3333 0.2500 0.1667  plane waves:    3376
 k-point 57 :   0.4167 0.2500 0.1667  plane waves:    3385
 k-point 58 :   0.5000 0.2500 0.1667  plane waves:    3370
 k-point 59 :   0.3333 0.3333 0.1667  plane waves:    3375
 k-point 60 :   0.4167 0.3333 0.1667  plane waves:    3385
 k-point 61 :   0.5000 0.3333 0.1667  plane waves:    3370
 k-point 62 :   0.4167 0.4167 0.1667  plane waves:    3369
 k-point 63 :   0.5000 0.4167 0.1667  plane waves:    3380
 k-point 64 :   0.5000 0.5000 0.1667  plane waves:    3392
 k-point 65 :   0.2500 0.2500 0.2500  plane waves:    3377
 k-point 66 :   0.3333 0.2500 0.2500  plane waves:    3377
 k-point 67 :   0.4167 0.2500 0.2500  plane waves:    3377
 k-point 68 :   0.5000 0.2500 0.2500  plane waves:    3380
 k-point 69 :   0.3333 0.3333 0.2500  plane waves:    3375
 k-point 70 :   0.4167 0.3333 0.2500  plane waves:    3366
 k-point 71 :   0.5000 0.3333 0.2500  plane waves:    3376
 k-point 72 :   0.4167 0.4167 0.2500  plane waves:    3366
 k-point 73 :   0.5000 0.4167 0.2500  plane waves:    3380
 k-point 74 :   0.5000 0.5000 0.2500  plane waves:    3396
 k-point 75 :   0.3333 0.3333 0.3333  plane waves:    3368
 k-point 76 :   0.4167 0.3333 0.3333  plane waves:    3366
 k-point 77 :   0.5000 0.3333 0.3333  plane waves:    3366
 k-point 78 :   0.4167 0.4167 0.3333  plane waves:    3372
 k-point 79 :   0.5000 0.4167 0.3333  plane waves:    3368
 k-point 80 :   0.5000 0.5000 0.3333  plane waves:    3376
 k-point 81 :   0.4167 0.4167 0.4167  plane waves:    3373
 k-point 82 :   0.5000 0.4167 0.4167  plane waves:    3380
 k-point 83 :   0.5000 0.5000 0.4167  plane waves:    3380
 k-point 84 :   0.5000 0.5000 0.5000  plane waves:    3328

 maximum and minimum number of plane-waves per node :      3415     3328

 maximum number of plane-waves:      3415
 maximum index in each direction: 
   IXMAX=    9   IYMAX=    9   IZMAX=    9
   IXMIN=   -9   IYMIN=   -9   IZMIN=   -9


 serial   3D FFT for wavefunctions
 parallel 3D FFT for charge:
    minimum data exchange during FFTs selected (reduces bandwidth)


 total amount of memory used by VASP MPI-rank0   475508. kBytes
=======================================================================

   base      :      30000. kBytes
   nonlr-proj:       3086. kBytes
   fftplans  :      17864. kBytes
   grid      :      31769. kBytes
   one-center:         24. kBytes
   wavefun   :     392765. kBytes

     INWAV:  cpu time    0.4902: real time    0.4902
 Broyden mixing: mesh for mixing (old mesh)
   NGX = 19   NGY = 19   NGZ = 19
  (NGX  = 80   NGY  = 80   NGZ  = 80)
  gives a total of   6859 points

 charge density for first step will be calculated from the start-wavefunctions


--------------------------------------------------------------------------------------------------------


 Maximum index for non-local projection operator         4385
 Maximum index for augmentation-charges        24837 (set IRDMAX)


--------------------------------------------------------------------------------------------------------


 initial charge from wavefunction
 First call to EWALD:  gamma=   0.405
 Maximum number of real-space cells 3x 3x 3
 Maximum number of reciprocal cells 3x 3x 3

    FEWALD:  cpu time    0.0006: real time    0.0006


--------------------------------------- Iteration      1(   1)  ---------------------------------------


    POTLOK:  cpu time    0.1484: real time    0.1484
    SETDIJ:  cpu time    0.0085: real time    0.0085
     EDDAV:  cpu time   60.6807: real time   60.6852
 BZINTS: Fermi energy:  7.953774; 32.000000 electrons
         Band energy:  67.038105;  BLOECHL correction:  0.000000
       DOS:  cpu time    0.0320: real time    0.0320
    --------------------------------------------
      LOOP:  cpu time   60.8695: real time   60.8740

 eigenvalue-minimisations  : 13024
 total energy-change (2. order) :-0.6026121E+02  (-0.5950676E-07)
 number of electron      31.9999997 magnetization 
 augmentation part       -0.4907554 magnetization 

 Free energy of the ion-electron system (eV)
  ---------------------------------------------------
  alpha Z        PSCENC =        44.16119048
  Ewald energy   TEWEN  =     -1133.91856026
  -Hartree energ DENC   =      -128.09013077
  -exchange      EXHF   =         0.00000000
  -V(xc)+E(xc)   XCENC  =        22.29825180
  PAW double counting   =      4050.69281533    -3983.31851885
  entropy T*S    EENTRO =         0.00000000
  eigenvalues    EBANDS =        67.03810532
  atomic energy  EATOM  =      1000.87563352
  Solvation  Ediel_sol  =         0.00000000
  ---------------------------------------------------
  free energy    TOTEN  =       -60.26121344 eV

  energy without entropy =      -60.26121344  energy(sigma->0) =      -60.26121344


--------------------------------------------------------------------------------------------------------




--------------------------------------- Iteration      1(   2)  ---------------------------------------


     EDDAV:  cpu time   69.9762: real time   69.9789
 BZINTS: Fermi energy:  7.967327; 32.000000 electrons
         Band energy:  67.038105;  BLOECHL correction:  0.000000
       DOS:  cpu time    0.0332: real time    0.0332
    --------------------------------------------
      LOOP:  cpu time   70.0094: real time   70.0120

 eigenvalue-minimisations  : 15632
 total energy-change (2. order) :-0.5852144E-07  (-0.5109197E-07)
 number of electron      31.9999997 magnetization 
 augmentation part       -0.4907554 magnetization 

 Free energy of the ion-electron system (eV)
  ---------------------------------------------------
  alpha Z        PSCENC =        44.16119048
  Ewald energy   TEWEN  =     -1133.91856026
  -Hartree energ DENC   =      -128.09013077
  -exchange      EXHF   =         0.00000000
  -V(xc)+E(xc)   XCENC  =        22.29825180
  PAW double counting   =      4050.69281533    -3983.31851885
  entropy T*S    EENTRO =         0.00000000
  eigenvalues    EBANDS =        67.03810526
  atomic energy  EATOM  =      1000.87563352
  Solvation  Ediel_sol  =         0.00000000
  ---------------------------------------------------
  free energy    TOTEN  =       -60.26121350 eV

  energy without entropy =      -60.26121350  energy(sigma->0) =      -60.26121350


--------------------------------------------------------------------------------------------------------




--------------------------------------- Iteration      1(   3)  ---------------------------------------


     EDDAV:  cpu time   70.1759: real time   70.1785
 BZINTS: Fermi energy:  7.976207; 32.000000 electrons
         Band energy:  67.038105;  BLOECHL correction:  0.000000
       DOS:  cpu time    0.0342: real time    0.0342
    --------------------------------------------
      LOOP:  cpu time   70.2101: real time   70.2127

 eigenvalue-minimisations  : 15680
 total energy-change (2. order) :-0.3015884E-08  (-0.2926874E-08)
 number of electron      31.9999997 magnetization 
 augmentation part       -0.4907554 magnetization 

 Free energy of the ion-electron system (eV)
  ---------------------------------------------------
  alpha Z        PSCENC =        44.16119048
  Ewald energy   TEWEN  =     -1133.91856026
  -Hartree energ DENC   =      -128.09013077
  -exchange      EXHF   =         0.00000000
  -V(xc)+E(xc)   XCENC  =        22.29825180
  PAW double counting   =      4050.69281533    -3983.31851885
  entropy T*S    EENTRO =         0.00000000
  eigenvalues    EBANDS =        67.03810525
  atomic energy  EATOM  =      1000.87563352
  Solvation  Ediel_sol  =         0.00000000
  ---------------------------------------------------
  free energy    TOTEN  =       -60.26121351 eV

  energy without entropy =      -60.26121351  energy(sigma->0) =      -60.26121351


--------------------------------------------------------------------------------------------------------




--------------------------------------- Iteration      1(   4)  ---------------------------------------


     EDDAV:  cpu time   68.4668: real time   68.4686
 BZINTS: Fermi energy:  7.965438; 32.000000 electrons
         Band energy:  67.038105;  BLOECHL correction:  0.000000
       DOS:  cpu time    0.0335: real time    0.0335
    --------------------------------------------
      LOOP:  cpu time   68.5003: real time   68.5021

 eigenvalue-minimisations  : 15104
 total energy-change (2. order) :-0.1446097E-09  (-0.1680873E-09)
 number of electron      31.9999997 magnetization 
 augmentation part       -0.4907554 magnetization 

 Free energy of the ion-electron system (eV)
  ---------------------------------------------------
  alpha Z        PSCENC =        44.16119048
  Ewald energy   TEWEN  =     -1133.91856026
  -Hartree energ DENC   =      -128.09013077
  -exchange      EXHF   =         0.00000000
  -V(xc)+E(xc)   XCENC  =        22.29825180
  PAW double counting   =      4050.69281533    -3983.31851885
  entropy T*S    EENTRO =         0.00000000
  eigenvalues    EBANDS =        67.03810525
  atomic energy  EATOM  =      1000.87563352
  Solvation  Ediel_sol  =         0.00000000
  ---------------------------------------------------
  free energy    TOTEN  =       -60.26121351 eV

  energy without entropy =      -60.26121351  energy(sigma->0) =      -60.26121351


--------------------------------------------------------------------------------------------------------




--------------------------------------- Iteration      1(   5)  ---------------------------------------


     EDDAV:  cpu time   67.7725: real time   67.7739
 BZINTS: Fermi energy:  7.954372; 32.000000 electrons
         Band energy:  67.038105;  BLOECHL correction:  0.000000
       DOS:  cpu time    0.0320: real time    0.0320
    CHARGE:  cpu time    0.6977: real time    0.6977
    MIXING:  cpu time    0.0042: real time    0.0042
    --------------------------------------------
      LOOP:  cpu time   68.5064: real time   68.5078

 eigenvalue-minimisations  : 15056
 total energy-change (2. order) :-0.9094947E-11  (-0.1475289E-10)
 number of electron      31.9999997 magnetization 
 augmentation part       -0.4907002 magnetization 

 Broyden mixing:
  rms(total) = 0.23671E-03    rms(broyden)= 0.23671E-03
  rms(prec ) = 0.28093E-03
  weight for this iteration     100.00

 Free energy of the ion-electron system (eV)
  ---------------------------------------------------
  alpha Z        PSCENC =        44.16119048
  Ewald energy   TEWEN  =     -1133.91856026
  -Hartree energ DENC   =      -128.09013077
  -exchange      EXHF   =         0.00000000
  -V(xc)+E(xc)   XCENC  =        22.29825180
  PAW double counting   =      4050.69281533    -3983.31851885
  entropy T*S    EENTRO =         0.00000000
  eigenvalues    EBANDS =        67.03810525
  atomic energy  EATOM  =      1000.87563352
  Solvation  Ediel_sol  =         0.00000000
  ---------------------------------------------------
  free energy    TOTEN  =       -60.26121351 eV

  energy without entropy =      -60.26121351  energy(sigma->0) =      -60.26121351


--------------------------------------------------------------------------------------------------------




--------------------------------------- Iteration      1(   6)  ---------------------------------------


    POTLOK:  cpu time    0.1430: real time    0.1430
    SETDIJ:  cpu time    0.0079: real time    0.0079
     EDDAV:  cpu time   62.9579: real time   62.9595
 BZINTS: Fermi energy:  7.975480; 32.000000 electrons
         Band energy:  67.038868;  BLOECHL correction:  0.000000
       DOS:  cpu time    0.0335: real time    0.0335
    --------------------------------------------
      LOOP:  cpu time   63.1423: real time   63.1439

 eigenvalue-minimisations  : 13644
 total energy-change (2. order) : 0.8899815E-07  (-0.1196358E-09)
 number of electron      31.9999997 magnetization 
 augmentation part       -0.4907002 magnetization 

 Free energy of the ion-electron system (eV)
  ---------------------------------------------------
  alpha Z        PSCENC =        44.16119048
  Ewald energy   TEWEN  =     -1133.91856026
  -Hartree energ DENC   =      -128.09103245
  -exchange      EXHF   =         0.00000000
  -V(xc)+E(xc)   XCENC  =        22.29834008
  PAW double counting   =      4051.04675639    -3983.67240912
  entropy T*S    EENTRO =         0.00000000
  eigenvalues    EBANDS =        67.03886796
  atomic energy  EATOM  =      1000.87563352
  Solvation  Ediel_sol  =         0.00000000
  ---------------------------------------------------
  free energy    TOTEN  =       -60.26121342 eV

  energy without entropy =      -60.26121342  energy(sigma->0) =      -60.26121342


--------------------------------------------------------------------------------------------------------




 average (electrostatic) potential at core
  the test charge radii are     0.9892  0.6991
  (the norm of the test charge is              1.0000)
       1 -80.5645       2 -80.5645       3 -80.5645       4 -80.5645       5 -44.9841
       6 -44.9841       7 -44.9841       8 -44.9841



 E-fermi :   7.9755     XC(G=0): -11.2959     alpha+bet :-16.2096


 k-point     1 :       0.0000    0.0000    0.0000
  band No.  band energies     occupation 
      1      -7.3434      2.00000
      2      -2.3914      2.00000
      3      -2.3914      2.00000
      4      -2.3914      2.00000
      5       0.2003      2.00000
      6       0.2003      2.00000
      7       0.2003      2.00000
      8       4.7933      2.00000
      9       4.7933      2.00000
     10       4.7933      2.00000
     11       4.7933      2.00000
     12       4.7933      2.00000
     13       4.7933      2.00000
     14       7.9509      2.00000
     15       7.9509      2.00000
     16       7.9509      2.00000
     17       9.3220      0.00000
     18       9.3220      0.00000
     19       9.3220      0.00000
     20      12.2268      0.00000
     21      12.2268      0.00000
     22      12.2268      0.00000
     23      14.0229      0.00000
     24      15.1648      0.00000
     25      15.1648      0.00000
     26      15.1648      0.00000
     27      21.8251      0.00000
     28      21.8251      0.00000
     29      21.8251      0.00000
     30      21.8251      0.00000
     31      21.8251      0.00000
     32      21.8251      0.00000
     33      22.3789      0.00000
     34      22.3789      0.00000
     35      22.5531      0.00000
     36      22.5531      0.00000
     37      22.5531      0.00000
     38      24.2200      0.00000
     39      25.1148      0.00000
     40      25.1148      0.00000
     41      25.1148      0.00000
     42      27.9263      0.00000
     43      27.9263      0.00000
     44      27.9263      0.00000
     45      29.9229      0.00000
     46      29.9229      0.00000
     47      29.9229      0.00000
     48      29.9229      0.00000
     49      29.9229      0.00000
     50      29.9229      0.00000
     51      30.3134      0.00000
     52      30.3134      0.00000
     53      30.3134      0.00000
     54      31.2648      0.00000
     55      32.5716      0.00000
     56      32.5716      0.00000
     57      32.5716      0.00000
     58      36.4525      0.00000
     59      36.4525      0.00000
     60      36.4525      0.00000
     61      36.4525      0.00000
     62      36.4525      0.00000
     63      36.4525      0.00000
     64      37.5135      0.00000
     65      37.5135      0.00000
     66      37.5135      0.00000
     67      39.5309      0.00000
     68      39.5309      0.00000
     69      39.5309      0.00000
     70      41.3560      0.00000
     71      41.3560      0.00000
     72      41.3560      0.00000
     73      41.6403      0.00000
     74      41.6403      0.00000
     75      41.6403      0.00000
     76      41.6403      0.00000
     77      41.6403      0.00000
     78      41.6403      0.00000
     79      42.0537      0.00000
     80      42.0537      0.00000
     81      42.0537      0.00000
     82      44.5778      0.00000
     83      44.5778      0.00000
     84      44.5784      0.00000

 k-point     2 :       0.0833    0.0000    0.0000
  band No.  band energies     occupation 
      1      -7.2986      2.00000
      2      -2.6661      2.00000
      3      -2.3776      2.00000
      4      -2.3776      2.00000
      5       0.2359      2.00000
      6       0.2359      2.00000
      7       0.5087      2.00000
      8       4.6584      2.00000
      9       4.6584      2.00000
     10       4.6721      2.00000
     11       4.6721      2.00000
     12       4.8301      2.00000
     13       4.8301      2.00000
     14       7.8041      2.00000
     15       7.8612      2.00000
     16       7.8612      2.00000
     17       9.4026      0.00000
     18       9.5525      0.00000
     19       9.5525      0.00000
     20      12.2813      0.00000
     21      12.4361      0.00000
     22      12.4361      0.00000
     23      14.1552      0.00000
     24      15.0440      0.00000
     25      15.2951      0.00000
     26      15.2951      0.00000
     27      21.5472      0.00000
     28      21.5472      0.00000
     29      21.6754      0.00000
     30      21.6754      0.00000
     31      21.7309      0.00000
     32      21.8364      0.00000
     33      21.8364      0.00000
     34      22.4035      0.00000
     35      22.4035      0.00000
     36      22.4248      0.00000
     37      22.4295      0.00000
     38      24.3731      0.00000
     39      25.2052      0.00000
     40      25.2052      0.00000
     41      25.6854      0.00000
     42      27.3982      0.00000
     43      27.3982      0.00000
     44      27.6553      0.00000
     45      29.5417      0.00000
     46      29.5417      0.00000
     47      30.0672      0.00000
     48      30.0672      0.00000
     49      30.3254      0.00000
     50      30.5215      0.00000
     51      30.5215      0.00000
     52      30.7632      0.00000
     53      30.7632      0.00000
     54      31.5602      0.00000
     55      32.8308      0.00000
     56      32.8308      0.00000
     57      32.9453      0.00000
     58      35.8282      0.00000
     59      35.8282      0.00000
     60      35.9589      0.00000
     61      35.9589      0.00000
     62      36.4086      0.00000
     63      36.4086      0.00000
     64      36.7977      0.00000
     65      38.1254      0.00000
     66      38.1254      0.00000
     67      39.2046      0.00000
     68      39.2046      0.00000
     69      39.2989      0.00000
     70      41.1636      0.00000
     71      41.1636      0.00000
     72      41.2817      0.00000
     73      41.2817      0.00000
     74      41.3213      0.00000
     75      41.6754      0.00000
     76      41.6754      0.00000
     77      42.1929      0.00000
     78      42.1929      0.00000
     79      42.6275      0.00000
     80      42.9864      0.00000
     81      42.9864      0.00000
     82      44.8365      0.00000
     83      44.8367      0.00000
     84      45.1643      0.00000

 k-point     3 :       0.1667    0.0000    0.0000
  band No.  band energies     occupation 
      1      -7.1643      2.00000
      2      -3.2625      2.00000
      3      -2.3392      2.00000
      4      -2.3392      2.00000
      5       0.3396      2.00000
      6       0.3396      2.00000
      7       1.2037      2.00000
      8       4.3315      2.00000
      9       4.3315      2.00000
     10       4.3515      2.00000
     11       4.3515      2.00000
     12       4.9395      2.00000
     13       4.9395      2.00000
     14       7.4038      2.00000
     15       7.6139      2.00000
     16       7.6139      2.00000
     17       9.6433      0.00000
     18      10.1627      0.00000
     19      10.1627      0.00000
     20      12.4456      0.00000
     21      13.0219      0.00000
     22      13.0219      0.00000
     23      14.4000      0.00000
     24      14.7992      0.00000
     25      15.6623      0.00000
     26      15.6623      0.00000
     27      20.5205      0.00000
     28      20.8003      0.00000
     29      20.8003      0.00000
     30      21.2631      0.00000
     31      21.2631      0.00000
     32      21.8507      0.00000
     33      21.8507      0.00000
     34      21.9491      0.00000
     35      21.9491      0.00000
     36      22.0583      0.00000
     37      22.5812      0.00000
     38      24.9080      0.00000
     39      25.4761      0.00000
     40      25.4761      0.00000
     41      26.5748      0.00000
     42      26.5748      0.00000
     43      26.5912      0.00000
     44      27.0198      0.00000
     45      29.1861      0.00000
     46      29.1861      0.00000
     47      30.3295      0.00000
     48      30.4036      0.00000
     49      30.4036      0.00000
     50      31.2260      0.00000
     51      31.2260      0.00000
     52      31.5582      0.00000
     53      31.5582      0.00000
     54      32.4150      0.00000
     55      33.6031      0.00000
     56      33.6031      0.00000
     57      33.8887      0.00000
     58      34.9694      0.00000
     59      34.9694      0.00000
     60      35.0516      0.00000
     61      35.0516      0.00000
     62      35.4120      0.00000
     63      36.2944      0.00000
     64      36.2944      0.00000
     65      38.4963      0.00000
     66      38.4963      0.00000
     67      38.5728      0.00000
     68      38.6659      0.00000
     69      38.6659      0.00000
     70      40.6010      0.00000
     71      40.6010      0.00000
     72      41.2433      0.00000
     73      41.2977      0.00000
     74      41.2977      0.00000
     75      42.0853      0.00000
     76      42.0853      0.00000
     77      43.3842      0.00000
     78      43.3843      0.00000
     79      44.0414      0.00000
     80      44.3806      0.00000
     81      44.3806      0.00000
     82      45.5011      0.00000
     83      45.5013      0.00000
     84      46.4577      0.00000

 k-point     4 :       0.2500    0.0000    0.0000
  band No.  band energies     occupation 
      1      -6.9416      2.00000
      2      -3.9381      2.00000
      3      -2.2847      2.00000
      4      -2.2847      2.00000
      5       0.5009      2.00000
      6       0.5009      2.00000
      7       2.0359      2.00000
      8       3.9264      2.00000
      9       3.9264      2.00000
     10       3.9512      2.00000
     11       3.9512      2.00000
     12       5.1196      2.00000
     13       5.1196      2.00000
     14       6.8302      2.00000
     15       7.2600      2.00000
     16       7.2600      2.00000
     17      10.0399      0.00000
     18      11.0022      0.00000
     19      11.0022      0.00000
     20      12.7221      0.00000
     21      13.8938      0.00000
     22      13.8938      0.00000
     23      14.0527      0.00000
     24      15.0233      0.00000
     25      16.2114      0.00000
     26      16.2114      0.00000
     27      19.3867      0.00000
     28      19.7733      0.00000
     29      19.7733      0.00000
     30      20.6667      0.00000
     31      20.6667      0.00000
     32      21.1111      0.00000
     33      21.1111      0.00000
     34      21.4997      0.00000
     35      21.9217      0.00000
     36      21.9217      0.00000
     37      22.8332      0.00000
     38      25.7447      0.00000
     39      25.9267      0.00000
     40      25.9267      0.00000
     41      25.9311      0.00000
     42      25.9311      0.00000
     43      26.2627      0.00000
     44      27.3786      0.00000
     45      28.9710      0.00000
     46      28.9710      0.00000
     47      30.2489      0.00000
     48      30.5967      0.00000
     49      30.5967      0.00000
     50      31.5446      0.00000
     51      31.5446      0.00000
     52      32.4513      0.00000
     53      32.4513      0.00000
     54      33.6746      0.00000
     55      33.8999      0.00000
     56      34.2206      0.00000
     57      34.2206      0.00000
     58      34.6320      0.00000
     59      34.6320      0.00000
     60      34.6708      0.00000
     61      34.6708      0.00000
     62      35.1579      0.00000
     63      36.1485      0.00000
     64      36.1485      0.00000
     65      37.8152      0.00000
     66      37.8341      0.00000
     67      37.8341      0.00000
     68      38.5810      0.00000
     69      38.5810      0.00000
     70      39.7217      0.00000
     71      39.7217      0.00000
     72      41.2132      0.00000
     73      41.5348      0.00000
     74      41.5348      0.00000
     75      43.0920      0.00000
     76      43.0920      0.00000
     77      44.6406      0.00000
     78      44.6409      0.00000
     79      45.6022      0.00000
     80      45.6863      0.00000
     81      45.7129      0.00000
     82      45.8325      0.00000
     83      46.4387      0.00000
     84      46.6111      0.00000

 k-point     5 :       0.3333    0.0000    0.0000
  band No.  band energies     occupation 
      1      -6.6320      2.00000
      2      -4.6007      2.00000
      3      -2.2275      2.00000
      4      -2.2275      2.00000
      5       0.6960      2.00000
      6       0.6960      2.00000
      7       2.9050      2.00000
      8       3.4960      2.00000
      9       3.4960      2.00000
     10       3.6193      2.00000
     11       3.6193      2.00000
     12       5.3668      2.00000
     13       5.3668      2.00000
     14       6.1498      2.00000
     15       6.8529      2.00000
     16       6.8529      2.00000
     17      10.5802      0.00000
     18      11.9305      0.00000
     19      11.9305      0.00000
     20      13.1142      0.00000
     21      13.4242      0.00000
     22      14.9645      0.00000
     23      14.9645      0.00000
     24      15.1686      0.00000
     25      16.8831      0.00000
     26      16.8831      0.00000
     27      18.6653      0.00000
     28      18.6653      0.00000
     29      18.7151      0.00000
     30      19.9600      0.00000
     31      19.9600      0.00000
     32      20.0224      0.00000
     33      20.0224      0.00000
     34      20.8082      0.00000
     35      21.9695      0.00000
     36      21.9695      0.00000
     37      23.1843      0.00000
     38      25.5063      0.00000
     39      25.5278      0.00000
     40      25.5278      0.00000
     41      26.5530      0.00000
     42      26.5530      0.00000
     43      26.7918      0.00000
     44      28.0573      0.00000
     45      28.8509      0.00000
     46      28.8509      0.00000
     47      30.0113      0.00000
     48      30.1778      0.00000
     49      30.1778      0.00000
     50      31.7879      0.00000
     51      31.7879      0.00000
     52      32.3886      0.00000
     53      32.7852      0.00000
     54      32.7852      0.00000
     55      34.2967      0.00000
     56      34.2967      0.00000
     57      34.9232      0.00000
     58      34.9232      0.00000
     59      35.0245      0.00000
     60      35.5674      0.00000
     61      35.5674      0.00000
     62      36.0138      0.00000
     63      36.0138      0.00000
     64      36.6299      0.00000
     65      37.2725      0.00000
     66      37.5742      0.00000
     67      37.5742      0.00000
     68      38.1142      0.00000
     69      38.1142      0.00000
     70      38.6208      0.00000
     71      38.6208      0.00000
     72      41.4256      0.00000
     73      41.8142      0.00000
     74      41.8142      0.00000
     75      43.7940      0.00000
     76      44.2220      0.00000
     77      44.2220      0.00000
     78      45.4910      0.00000
     79      45.4932      0.00000
     80      45.6735      0.00000
     81      45.6763      0.00000
     82      46.3198      0.00000
     83      47.6120      0.00000
     84      47.6245      0.00000

 k-point     6 :       0.4167    0.0000    0.0000
  band No.  band energies     occupation 
      1      -6.2381      2.00000
      2      -5.2148      2.00000
      3      -2.1839      2.00000
      4      -2.1839      2.00000
      5       0.8742      2.00000
      6       0.8742      2.00000
      7       3.1597      2.00000
      8       3.1597      2.00000
      9       3.3972      2.00000
     10       3.3972      2.00000
     11       3.7680      2.00000
     12       5.4014      2.00000
     13       5.6751      2.00000
     14       5.6751      2.00000
     15       6.4348      2.00000
     16       6.4348      2.00000
     17      11.2373      0.00000
     18      12.7123      0.00000
     19      12.7630      0.00000
     20      12.7630      0.00000
     21      13.6233      0.00000
     22      14.8377      0.00000
     23      16.1630      0.00000
     24      16.1630      0.00000
     25      17.6280      0.00000
     26      17.6280      0.00000
     27      17.7075      0.00000
     28      17.7075      0.00000
     29      18.7647      0.00000
     30      18.7799      0.00000
     31      18.7799      0.00000
     32      19.1955      0.00000
     33      19.1955      0.00000
     34      20.0505      0.00000
     35      22.0065      0.00000
     36      22.0065      0.00000
     37      23.6324      0.00000
     38      24.8023      0.00000
     39      25.3161      0.00000
     40      25.3161      0.00000
     41      27.3441      0.00000
     42      27.3441      0.00000
     43      27.9567      0.00000
     44      28.7207      0.00000
     45      28.7907      0.00000
     46      28.7907      0.00000
     47      29.2750      0.00000
     48      29.2750      0.00000
     49      29.5939      0.00000
     50      30.9285      0.00000
     51      31.9612      0.00000
     52      31.9612      0.00000
     53      32.7266      0.00000
     54      32.7266      0.00000
     55      35.0861      0.00000
     56      35.0861      0.00000
     57      35.7034      0.00000
     58      35.7034      0.00000
     59      35.7710      0.00000
     60      35.7710      0.00000
     61      35.9631      0.00000
     62      35.9631      0.00000
     63      36.0752      0.00000
     64      36.9422      0.00000
     65      37.4085      0.00000
     66      37.4085      0.00000
     67      37.4772      0.00000
     68      37.4772      0.00000
     69      37.9873      0.00000
     70      37.9873      0.00000
     71      38.2513      0.00000
     72      41.8483      0.00000
     73      42.0289      0.00000
     74      42.0289      0.00000
     75      42.1728      0.00000
     76      44.5232      0.00000
     77      44.5234      0.00000
     78      44.9645      0.00000
     79      44.9646      0.00000
     80      45.2715      0.00000
     81      46.4008      0.00000
     82      46.4171      0.00000
     83      47.2736      0.00000
     84      47.4593      0.00000

 k-point     7 :       0.5000    0.0000    0.0000
  band No.  band energies     occupation 
      1      -5.7638      2.00000
      2      -5.7638      2.00000
      3      -2.1674      2.00000
      4      -2.1674      2.00000
      5       0.9516      2.00000
      6       0.9516      2.00000
      7       3.0271      2.00000
      8       3.0271      2.00000
      9       3.3194      2.00000
     10       3.3194      2.00000
     11       4.6039      2.00000
     12       4.6039      2.00000
     13       6.0355      2.00000
     14       6.0355      2.00000
     15       6.0355      2.00000
     16       6.0355      2.00000
     17      11.9664      0.00000
     18      11.9664      0.00000
     19      13.1405      0.00000
     20      13.1405      0.00000
     21      14.2307      0.00000
     22      14.2307      0.00000
     23      17.2628      0.00000
     24      17.2628      0.00000
     25      17.2855      0.00000
     26      17.2855      0.00000
     27      17.6598      0.00000
     28      17.6598      0.00000
     29      18.4086      0.00000
     30      18.4086      0.00000
     31      18.4086      0.00000
     32      18.4086      0.00000
     33      19.3154      0.00000
     34      19.3154      0.00000
     35      22.0204      0.00000
     36      22.0204      0.00000
     37      24.1738      0.00000
     38      24.1738      0.00000
     39      25.2506      0.00000
     40      25.2506      0.00000
     41      28.2729      0.00000
     42      28.2729      0.00000
     43      28.2729      0.00000
     44      28.2729      0.00000
     45      28.7725      0.00000
     46      28.7725      0.00000
     47      28.9743      0.00000
     48      28.9743      0.00000
     49      29.6131      0.00000
     50      29.6131      0.00000
     51      32.0268      0.00000
     52      32.0268      0.00000
     53      32.6756      0.00000
     54      32.6756      0.00000
     55      35.7305      0.00000
     56      35.7305      0.00000
     57      35.9497      0.00000
     58      35.9497      0.00000
     59      36.1911      0.00000
     60      36.1911      0.00000
     61      36.1911      0.00000
     62      36.1911      0.00000
     63      36.3202      0.00000
     64      36.3202      0.00000
     65      36.6442      0.00000
     66      36.6442      0.00000
     67      36.9418      0.00000
     68      36.9418      0.00000
     69      38.3219      0.00000
     70      38.3219      0.00000
     71      39.9961      0.00000
     72      39.9961      0.00000
     73      42.1086      0.00000
     74      42.1086      0.00000
     75      43.5727      0.00000
     76      43.5727      0.00000
     77      44.0701      0.00000
     78      44.0702      0.00000
     79      45.1920      0.00000
     80      45.1923      0.00000
     81      46.8881      0.00000
     82      46.8904      0.00000
     83      46.8988      0.00000
     84      47.0561      0.00000

 k-point     8 :       0.0833    0.0833    0.0000
  band No.  band energies     occupation 
      1      -7.2538      2.00000
      2      -2.6467      2.00000
      3      -2.6467      2.00000
      4      -2.3660      2.00000
      5       0.2707      2.00000
      6       0.5346      2.00000
      7       0.5346      2.00000
[...]
   60.870870    0.953731    0.953731    0.953731   -0.000000   -0.000000   -0.000000
   60.904895    0.955693    0.955693    0.955693   -0.000000   -0.000000   -0.000000
   60.938920    0.959740    0.959740    0.959740   -0.000000   -0.000000   -0.000000
   60.972945    0.963838    0.963838    0.963838   -0.000000   -0.000000   -0.000000
   61.006970    0.966748    0.966748    0.966748   -0.000000   -0.000000   -0.000000
   61.040995    0.967767    0.967767    0.967767   -0.000000   -0.000000   -0.000000
   61.075020    0.966538    0.966538    0.966538   -0.000000   -0.000000   -0.000000
   61.109045    0.963651    0.963651    0.963651   -0.000000   -0.000000   -0.000000
   61.143070    0.961018    0.961018    0.961018   -0.000000   -0.000000   -0.000000
   61.177095    0.960557    0.960557    0.960557   -0.000000   -0.000000   -0.000000
   61.211120    0.962512    0.962512    0.962512   -0.000000   -0.000000   -0.000000
   61.245145    0.965675    0.965675    0.965675   -0.000000   -0.000000   -0.000000
   61.279171    0.968865    0.968865    0.968865   -0.000000   -0.000000   -0.000000
   61.313196    0.971577    0.971577    0.971577   -0.000000   -0.000000   -0.000000
   61.347221    0.973569    0.973569    0.973569   -0.000000   -0.000000   -0.000000
   61.381246    0.974701    0.974701    0.974701   -0.000000   -0.000000   -0.000000
   61.415271    0.975272    0.975272    0.975272   -0.000000   -0.000000   -0.000000
   61.449296    0.975990    0.975990    0.975990   -0.000000   -0.000000   -0.000000
   61.483321    0.977247    0.977247    0.977247   -0.000000   -0.000000   -0.000000
   61.517346    0.978798    0.978798    0.978798   -0.000000   -0.000000   -0.000000
   61.551371    0.980349    0.980349    0.980349   -0.000000   -0.000000   -0.000000
   61.585396    0.981939    0.981939    0.981939   -0.000000   -0.000000   -0.000000
   61.619421    0.983696    0.983696    0.983696   -0.000000   -0.000000   -0.000000
   61.653446    0.985577    0.985577    0.985577   -0.000000   -0.000000   -0.000000
   61.687472    0.987348    0.987348    0.987348   -0.000000   -0.000000   -0.000000
   61.721497    0.988773    0.988773    0.988773   -0.000000   -0.000000   -0.000000
   61.755522    0.989713    0.989713    0.989713   -0.000000   -0.000000   -0.000000
   61.789547    0.990190    0.990190    0.990190   -0.000000   -0.000000   -0.000000
   61.823572    0.990414    0.990414    0.990414   -0.000000   -0.000000   -0.000000
   61.857597    0.990688    0.990688    0.990688   -0.000000   -0.000000   -0.000000
   61.891622    0.991219    0.991219    0.991219   -0.000000   -0.000000   -0.000000
   61.925647    0.991995    0.991995    0.991995   -0.000000   -0.000000   -0.000000
   61.959672    0.992796    0.992796    0.992796   -0.000000   -0.000000   -0.000000
   61.993697    0.993385    0.993385    0.993385   -0.000000   -0.000000   -0.000000
   62.027722    0.993687    0.993687    0.993687   -0.000000   -0.000000   -0.000000
   62.061747    0.993775    0.993775    0.993775   -0.000000   -0.000000   -0.000000
   62.095773    0.993768    0.993768    0.993768   -0.000000   -0.000000   -0.000000
   62.129798    0.993779    0.993779    0.993779   -0.000000   -0.000000   -0.000000
   62.163823    0.993893    0.993893    0.993893   -0.000000   -0.000000   -0.000000
   62.197848    0.994124    0.994124    0.994124   -0.000000   -0.000000   -0.000000
   62.231873    0.994423    0.994423    0.994423   -0.000000   -0.000000   -0.000000
   62.265898    0.994737    0.994737    0.994737   -0.000000   -0.000000   -0.000000
   62.299923    0.995035    0.995035    0.995035   -0.000000   -0.000000   -0.000000
   62.333948    0.995302    0.995302    0.995302   -0.000000   -0.000000   -0.000000
   62.367973    0.995536    0.995536    0.995536   -0.000000   -0.000000   -0.000000
   62.401998    0.995753    0.995753    0.995753   -0.000000   -0.000000   -0.000000
   62.436023    0.995978    0.995978    0.995978   -0.000000   -0.000000   -0.000000
   62.470048    0.996234    0.996234    0.996234   -0.000000   -0.000000   -0.000000
   62.504073    0.996528    0.996528    0.996528   -0.000000   -0.000000   -0.000000
   62.538099    0.996851    0.996851    0.996851   -0.000000   -0.000000    0.000000
   62.572124    0.997189    0.997189    0.997189   -0.000000   -0.000000    0.000000
   62.606149    0.997533    0.997533    0.997533   -0.000000   -0.000000    0.000000
   62.640174    0.997867    0.997867    0.997867   -0.000000   -0.000000    0.000000
   62.674199    0.998157    0.998157    0.998157   -0.000000   -0.000000    0.000000
   62.708224    0.998377    0.998377    0.998377   -0.000000   -0.000000    0.000000
   62.742249    0.998546    0.998546    0.998546   -0.000000   -0.000000    0.000000
   62.776274    0.998720    0.998720    0.998720   -0.000000   -0.000000    0.000000
   62.810299    0.998963    0.998963    0.998963   -0.000000   -0.000000    0.000000
   62.844324    0.999306    0.999306    0.999306   -0.000000   -0.000000    0.000000
   62.878349    0.999753    0.999753    0.999753   -0.000000   -0.000000    0.000000
   62.912374    1.000289    1.000289    1.000289   -0.000000    0.000000    0.000000
   62.946400    1.000854    1.000854    1.000854    0.000000    0.000000    0.000000
   62.980425    1.001360    1.001360    1.001360    0.000000    0.000000    0.000000
   63.014450    1.001781    1.001781    1.001781    0.000000    0.000000    0.000000
   63.048475    1.002210    1.002210    1.002210    0.000000    0.000000    0.000000
   63.082500    1.002766    1.002766    1.002766    0.000000    0.000000    0.000000
   63.116525    1.003544    1.003544    1.003544    0.000000    0.000000    0.000000
   63.150550    1.004557    1.004557    1.004557    0.000000    0.000000    0.000000
   63.184575    1.005647    1.005647    1.005647    0.000000    0.000000    0.000000
   63.218600    1.006555    1.006555    1.006555    0.000000    0.000000    0.000000
   63.252625    1.007109    1.007109    1.007109    0.000000    0.000000    0.000000
   63.286650    1.007331    1.007331    1.007331    0.000000    0.000000    0.000000
   63.320675    1.007398    1.007398    1.007398    0.000000    0.000000    0.000000
   63.354701    1.007497    1.007497    1.007497    0.000000    0.000000    0.000000
   63.388726    1.007602    1.007602    1.007602    0.000000    0.000000    0.000000
   63.422751    1.007507    1.007507    1.007507    0.000000    0.000000    0.000000
   63.456776    1.007234    1.007234    1.007234    0.000000    0.000000    0.000000
   63.490801    1.007145    1.007145    1.007145    0.000000    0.000000    0.000000
   63.524826    1.007408    1.007408    1.007408    0.000000    0.000000    0.000000
   63.558851    1.007717    1.007717    1.007717    0.000000    0.000000    0.000000
   63.592876    1.007634    1.007634    1.007634    0.000000    0.000000    0.000000
   63.626901    1.006776    1.006776    1.006776    0.000000    0.000000    0.000000
   63.660926    1.004731    1.004731    1.004731    0.000000    0.000000    0.000000
   63.694951    1.001265    1.001265    1.001265    0.000000    0.000000    0.000000
   63.728976    0.996885    0.996885    0.996885   -0.000000   -0.000000   -0.000000
   63.763001    0.993105    0.993105    0.993105   -0.000000   -0.000000   -0.000000
   63.797027    0.991470    0.991470    0.991470   -0.000000   -0.000000   -0.000000
   63.831052    0.992123    0.992123    0.992123   -0.000000   -0.000000   -0.000000
   63.865077    0.993795    0.993795    0.993795   -0.000000   -0.000000   -0.000000
   63.899102    0.995001    0.995001    0.995001   -0.000000   -0.000000   -0.000000
   63.933127    0.994640    0.994640    0.994640   -0.000000   -0.000000   -0.000000
   63.967152    0.991812    0.991812    0.991812   -0.000000   -0.000000   -0.000000
   64.001177    0.986265    0.986265    0.986265   -0.000000   -0.000000   -0.000000
   64.035202    0.979350    0.979350    0.979350   -0.000000   -0.000000   -0.000000
   64.069227    0.973665    0.973665    0.973665   -0.000000   -0.000000   -0.000000
   64.103252    0.971293    0.971293    0.971293   -0.000000   -0.000000   -0.000000
   64.137277    0.972461    0.972461    0.972461   -0.000000   -0.000000   -0.000000
   64.171302    0.975657    0.975657    0.975657   -0.000000   -0.000000   -0.000000
   64.205328    0.978952    0.978952    0.978952   -0.000000   -0.000000   -0.000000
   64.239353    0.980980    0.980980    0.980980   -0.000000   -0.000000   -0.000000
   64.273378    0.980904    0.980904    0.980904   -0.000000   -0.000000   -0.000000
   64.307403    0.978509    0.978509    0.978509   -0.000000   -0.000000   -0.000000
   64.341428    0.974627    0.974627    0.974627   -0.000000   -0.000000   -0.000000
   64.375453    0.970841    0.970841    0.970841   -0.000000   -0.000000   -0.000000
   64.409478    0.968410    0.968410    0.968410   -0.000000   -0.000000   -0.000000
   64.443503    0.968069    0.968069    0.968069   -0.000000   -0.000000   -0.000000
   64.477528    0.969931    0.969931    0.969931   -0.000000   -0.000000   -0.000000
   64.511553    0.972995    0.972995    0.972995   -0.000000   -0.000000   -0.000000
   64.545578    0.975846    0.975846    0.975846   -0.000000   -0.000000   -0.000000
   64.579603    0.977607    0.977607    0.977607   -0.000000   -0.000000   -0.000000
   64.613628    0.978101    0.978101    0.978101   -0.000000   -0.000000   -0.000000
   64.647654    0.978091    0.978091    0.978091   -0.000000   -0.000000   -0.000000
   64.681679    0.978686    0.978686    0.978686   -0.000000   -0.000000   -0.000000
   64.715704    0.979524    0.979524    0.979524   -0.000000   -0.000000   -0.000000
   64.749729    0.979672    0.979672    0.979672   -0.000000   -0.000000   -0.000000
   64.783754    0.979669    0.979669    0.979669   -0.000000   -0.000000   -0.000000
   64.817779    0.980463    0.980463    0.980463   -0.000000   -0.000000   -0.000000
   64.851804    0.981904    0.981904    0.981904   -0.000000   -0.000000   -0.000000
   64.885829    0.983183    0.983183    0.983183   -0.000000   -0.000000   -0.000000
   64.919854    0.983872    0.983872    0.983872   -0.000000   -0.000000   -0.000000
   64.953879    0.984463    0.984463    0.984463   -0.000000   -0.000000   -0.000000
   64.987904    0.986045    0.986045    0.986045   -0.000000   -0.000000   -0.000000
   65.021929    0.988514    0.988514    0.988514   -0.000000   -0.000000   -0.000000
   65.055955    0.990036    0.990036    0.990036   -0.000000   -0.000000   -0.000000
   65.089980    0.989742    0.989742    0.989742   -0.000000   -0.000000   -0.000000
   65.124005    0.989064    0.989064    0.989064   -0.000000   -0.000000   -0.000000
   65.158030    0.989084    0.989084    0.989084   -0.000000   -0.000000   -0.000000
   65.192055    0.989398    0.989398    0.989398   -0.000000   -0.000000   -0.000000
   65.226080    0.989256    0.989256    0.989256   -0.000000   -0.000000   -0.000000
   65.260105    0.988347    0.988347    0.988347   -0.000000   -0.000000   -0.000000
   65.294130    0.987297    0.987297    0.987297   -0.000000   -0.000000   -0.000000
   65.328155    0.987104    0.987104    0.987104   -0.000000   -0.000000   -0.000000
   65.362180    0.987302    0.987302    0.987302   -0.000000   -0.000000   -0.000000
   65.396205    0.986833    0.986833    0.986833   -0.000000   -0.000000   -0.000000
   65.430230    0.986157    0.986157    0.986157   -0.000000   -0.000000   -0.000000
   65.464256    0.986240    0.986240    0.986240   -0.000000   -0.000000   -0.000000
   65.498281    0.986889    0.986889    0.986889   -0.000000   -0.000000   -0.000000
   65.532306    0.987023    0.987023    0.987023   -0.000000   -0.000000   -0.000000
   65.566331    0.985660    0.985660    0.985660   -0.000000   -0.000000   -0.000000
   65.600356    0.982459    0.982459    0.982459   -0.000000   -0.000000   -0.000000
   65.634381    0.978127    0.978127    0.978127   -0.000000   -0.000000   -0.000000
   65.668406    0.974035    0.974035    0.974035   -0.000000   -0.000000   -0.000000
   65.702431    0.971178    0.971178    0.971178   -0.000000   -0.000000   -0.000000
   65.736456    0.970190    0.970190    0.970190   -0.000000   -0.000000   -0.000000
   65.770481    0.971328    0.971328    0.971328   -0.000000   -0.000000   -0.000000
   65.804506    0.973728    0.973728    0.973728   -0.000000   -0.000000   -0.000000
   65.838531    0.975867    0.975867    0.975867   -0.000000   -0.000000   -0.000000
   65.872556    0.976514    0.976514    0.976514   -0.000000   -0.000000   -0.000000
   65.906582    0.974763    0.974763    0.974763   -0.000000   -0.000000   -0.000000
   65.940607    0.970347    0.970347    0.970347   -0.000000   -0.000000   -0.000000
   65.974632    0.964401    0.964401    0.964401   -0.000000   -0.000000   -0.000000
   66.008657    0.959266    0.959266    0.959266   -0.000000   -0.000000   -0.000000
   66.042682    0.957066    0.957066    0.957066   -0.000000   -0.000000   -0.000000
   66.076707    0.958280    0.958280    0.958280   -0.000000   -0.000000   -0.000000
   66.110732    0.961584    0.961584    0.961584   -0.000000   -0.000000   -0.000000
   66.144757    0.965158    0.965158    0.965158   -0.000000   -0.000000   -0.000000
   66.178782    0.967764    0.967764    0.967764   -0.000000   -0.000000   -0.000000
   66.212807    0.968682    0.968682    0.968682   -0.000000   -0.000000   -0.000000
   66.246832    0.967590    0.967590    0.967590   -0.000000   -0.000000   -0.000000
   66.280857    0.965041    0.965041    0.965041   -0.000000   -0.000000   -0.000000
   66.314883    0.962722    0.962722    0.962722   -0.000000   -0.000000   -0.000000
   66.348908    0.962316    0.962316    0.962316   -0.000000   -0.000000   -0.000000
   66.382933    0.964060    0.964060    0.964060   -0.000000   -0.000000   -0.000000
   66.416958    0.966918    0.966918    0.966918   -0.000000   -0.000000   -0.000000
   66.450983    0.969835    0.969835    0.969835   -0.000000   -0.000000   -0.000000
   66.485008    0.972359    0.972359    0.972359   -0.000000   -0.000000   -0.000000
   66.519033    0.974346    0.974346    0.974346   -0.000000   -0.000000   -0.000000
   66.553058    0.975746    0.975746    0.975746   -0.000000   -0.000000   -0.000000
   66.587083    0.976729    0.976729    0.976729   -0.000000   -0.000000   -0.000000
   66.621108    0.977688    0.977688    0.977688   -0.000000   -0.000000   -0.000000
   66.655133    0.978845    0.978845    0.978845   -0.000000   -0.000000   -0.000000
   66.689158    0.980070    0.980070    0.980070   -0.000000   -0.000000   -0.000000
   66.723184    0.981218    0.981218    0.981218   -0.000000   -0.000000   -0.000000
   66.757209    0.982333    0.982333    0.982333   -0.000000   -0.000000   -0.000000
   66.791234    0.983520    0.983520    0.983520   -0.000000   -0.000000   -0.000000
   66.825259    0.984796    0.984796    0.984796   -0.000000   -0.000000   -0.000000
   66.859284    0.986022    0.986022    0.986022   -0.000000   -0.000000   -0.000000
   66.893309    0.986990    0.986990    0.986990   -0.000000   -0.000000   -0.000000
   66.927334    0.987589    0.987589    0.987589   -0.000000   -0.000000   -0.000000
   66.961359    0.987876    0.987876    0.987876   -0.000000   -0.000000   -0.000000
   66.995384    0.988016    0.988016    0.988016   -0.000000   -0.000000   -0.000000
   67.029409    0.988155    0.988155    0.988155   -0.000000   -0.000000   -0.000000
   67.063434    0.988359    0.988359    0.988359   -0.000000   -0.000000   -0.000000
   67.097459    0.988604    0.988604    0.988604   -0.000000   -0.000000   -0.000000
   67.131484    0.988822    0.988822    0.988822   -0.000000   -0.000000   -0.000000
   67.165510    0.988972    0.988972    0.988972   -0.000000   -0.000000   -0.000000
   67.199535    0.989066    0.989066    0.989066   -0.000000   -0.000000   -0.000000
   67.233560    0.989137    0.989137    0.989137   -0.000000   -0.000000   -0.000000
   67.267585    0.989206    0.989206    0.989206   -0.000000   -0.000000   -0.000000
   67.301610    0.989284    0.989284    0.989284   -0.000000   -0.000000   -0.000000
   67.335635    0.989383    0.989383    0.989383   -0.000000   -0.000000   -0.000000
   67.369660    0.989505    0.989505    0.989505   -0.000000   -0.000000   -0.000000
   67.403685    0.989643    0.989643    0.989643   -0.000000   -0.000000   -0.000000
   67.437710    0.989788    0.989788    0.989788   -0.000000   -0.000000   -0.000000
   67.471735    0.989930    0.989930    0.989930   -0.000000   -0.000000   -0.000000
   67.505760    0.990065    0.990065    0.990065   -0.000000   -0.000000   -0.000000
   67.539785    0.990188    0.990188    0.990188   -0.000000   -0.000000   -0.000000
   67.573811    0.990300    0.990300    0.990300   -0.000000   -0.000000   -0.000000
   67.607836    0.990409    0.990409    0.990409   -0.000000   -0.000000   -0.000000
   67.641861    0.990519    0.990519    0.990519   -0.000000   -0.000000   -0.000000
   67.675886    0.990630    0.990630    0.990630   -0.000000   -0.000000   -0.000000
   67.709911    0.990743    0.990743    0.990743   -0.000000   -0.000000   -0.000000
   67.743936    0.990860    0.990860    0.990860   -0.000000   -0.000000   -0.000000
   67.777961    0.990980    0.990980    0.990980   -0.000000   -0.000000   -0.000000
   67.811986    0.991097    0.991097    0.991097   -0.000000   -0.000000   -0.000000
   67.846011    0.991230    0.991230    0.991230   -0.000000   -0.000000   -0.000000
   67.880036    0.991427    0.991427    0.991427   -0.000000   -0.000000   -0.000000
   67.914061    0.991739    0.991739    0.991739   -0.000000   -0.000000   -0.000000
   67.948086    0.992172    0.992172    0.992172   -0.000000   -0.000000   -0.000000
   67.982111    0.992642    0.992642    0.992642   -0.000000   -0.000000   -0.000000
   68.016137    0.993011    0.993011    0.993011   -0.000000   -0.000000   -0.000000
   68.050162    0.993191    0.993191    0.993191   -0.000000   -0.000000   -0.000000

 The outermost node in the dielectric function lies at epsilon=  21.8


--------------------------------------------------------------------------------------------------------


    OPTICS:  cpu time   23.8340: real time   23.8351
    4ORBIT:  cpu time    0.0000: real time    0.0000



 total charge     

# of ion       s       p       d       tot
------------------------------------------
    1        0.706   0.961   0.000   1.668
    2        0.706   0.961   0.000   1.668
    3        0.706   0.961   0.000   1.668
    4        0.706   0.961   0.000   1.668
    5        0.834   1.697   0.000   2.531
    6        0.834   1.697   0.000   2.531
    7        0.834   1.697   0.000   2.531
    8        0.834   1.697   0.000   2.531
--------------------------------------------------
tot          6.161  10.634   0.000  16.795

 BZINTS: Fermi energy:  7.975480; 32.000000 electrons
         Band energy:  67.038868;  BLOECHL correction:  0.000000

 total amount of memory used by VASP MPI-rank0   475508. kBytes
=======================================================================

   base      :      30000. kBytes
   nonlr-proj:       3086. kBytes
   fftplans  :      17864. kBytes
   grid      :      31769. kBytes
   one-center:         24. kBytes
   wavefun   :     392765. kBytes

  
  
 General timing and accounting informations for this job:
 ========================================================
  
                  Total CPU time used (sec):      544.072
                            User time (sec):      543.777
                          System time (sec):        0.295
                         Elapsed time (sec):      544.333
  
                   Maximum memory used (kb):      784128.
                   Average memory used (kb):           0.
  
                          Minor page faults:       293740
                          Major page faults:            3
                 Voluntary context switches:         1224
