PROCAR new format
# of k-points:   84         # of bands:   84         # of ions:    8

 k-point     1 :    0.00000000 0.00000000 0.00000000     weight = 0.00057870

band     1 # energy   -7.34342603 # occ.  2.00000000

ion      s      p      d    tot
    1  0.061  0.000  0.000  0.061
    2  0.061  0.000  0.000  0.061
    3  0.061  0.000  0.000  0.061
    4  0.061  0.000  0.000  0.061
    5  0.063  0.000  0.000  0.063
    6  0.063  0.000  0.000  0.063
    7  0.063  0.000  0.000  0.063
    8  0.063  0.000  0.000  0.063
tot    0.495  0.000  0.000  0.495

band     2 # energy   -2.39144235 # occ.  2.00000000

ion      s      p      d    tot
    1  0.000  0.033  0.000  0.033
    2  0.000  0.033  0.000  0.033
    3  0.000  0.033  0.000  0.033
    4  0.000  0.033  0.000  0.033
    5  0.136  0.000  0.000  0.136
    6  0.256  0.000  0.000  0.256
    7  0.005  0.000  0.000  0.005
    8  0.033  0.000  0.000  0.033
tot    0.430  0.133  0.000  0.562

band     3 # energy   -2.39144235 # occ.  2.00000000

ion      s      p      d    tot
    1  0.000  0.033  0.000  0.033
    2  0.000  0.033  0.000  0.033
    3  0.000  0.033  0.000  0.033
    4  0.000  0.033  0.000  0.033
    5  0.025  0.000  0.000  0.025
    6  0.025  0.000  0.000  0.025
    7  0.187  0.000  0.000  0.187
    8  0.193  0.000  0.000  0.193
tot    0.430  0.133  0.000  0.562

band     4 # energy   -2.39144235 # occ.  2.00000000

ion      s      p      d    tot
    1  0.000  0.033  0.000  0.033
    2  0.000  0.033  0.000  0.033
    3  0.000  0.033  0.000  0.033
    4  0.000  0.033  0.000  0.033
    5  0.162  0.000  0.000  0.162
    6  0.041  0.000  0.000  0.041
    7  0.130  0.000  0.000  0.130
    8  0.097  0.000  0.000  0.097
tot    0.430  0.133  0.000  0.562

band     5 # energy    0.20031248 # occ.  2.00000000

ion      s      p      d    tot
    1  0.100  0.000  0.000  0.100
    2  0.094  0.000  0.000  0.094
    3  0.072  0.000  0.000  0.072
    4  0.084  0.000  0.000  0.084
    5  0.000  0.046  0.000  0.046
    6  0.000  0.046  0.000  0.046
    7  0.000  0.046  0.000  0.046
    8  0.000  0.046  0.000  0.046
tot    0.349  0.185  0.000  0.534

band     6 # energy    0.20031248 # occ.  2.00000000

ion      s      p      d    tot
    1  0.092  0.000  0.000  0.092
    2  0.042  0.000  0.000  0.042
    3  0.080  0.000  0.000  0.080
    4  0.135  0.000  0.000  0.135
    5  0.000  0.046  0.000  0.046
    6  0.000  0.046  0.000  0.046
    7  0.000  0.046  0.000  0.046
    8  0.000  0.046  0.000  0.046
tot    0.349  0.185  0.000  0.534

band     7 # energy    0.20031248 # occ.  2.00000000

ion      s      p      d    tot
    1  0.070  0.000  0.000  0.070
    2  0.126  0.000  0.000  0.126
    3  0.110  0.000  0.000  0.110
    4  0.043  0.000  0.000  0.043
    5  0.000  0.046  0.000  0.046
    6  0.000  0.046  0.000  0.046
    7  0.000  0.046  0.000  0.046
    8  0.000  0.046  0.000  0.046
tot    0.349  0.185  0.000  0.534

band     8 # energy    4.79330956 # occ.  2.00000000

ion      s      p      d    tot
    1  0.000  0.037  0.000  0.037
    2  0.000  0.082  0.000  0.082
    3  0.000  0.038  0.000  0.038
    4  0.000  0.065  0.000  0.065
    5  0.000  0.043  0.000  0.043
    6  0.000  0.033  0.000  0.033
    7  0.000  0.106  0.000  0.106
    8  0.000  0.133  0.000  0.133
tot    0.000  0.539  0.000  0.539

band     9 # energy    4.79330956 # occ.  2.00000000

ion      s      p      d    tot
    1  0.000  0.083  0.000  0.083
    2  0.000  0.061  0.000  0.061
    3  0.000  0.051  0.000  0.051
    4  0.000  0.029  0.000  0.029
    5  0.000  0.093  0.000  0.093
    6  0.000  0.093  0.000  0.093
    7  0.000  0.043  0.000  0.043
    8  0.000  0.087  0.000  0.087
tot    0.000  0.539  0.000  0.539

band    10 # energy    4.79330956 # occ.  2.00000000

ion      s      p      d    tot
    1  0.000  0.010  0.000  0.010
    2  0.000  0.043  0.000  0.043
    3  0.000  0.083  0.000  0.083
    4  0.000  0.088  0.000  0.088
    5  0.000  0.102  0.000  0.102
    6  0.000  0.122  0.000  0.122
    7  0.000  0.071  0.000  0.071
    8  0.000  0.020  0.000  0.020
tot    0.000  0.539  0.000  0.539

band    11 # energy    4.79330956 # occ.  2.00000000

ion      s      p      d    tot
    1  0.000  0.028  0.000  0.028
    2  0.000  0.081  0.000  0.081
    3  0.000  0.089  0.000  0.089
    4  0.000  0.025  0.000  0.025
    5  0.000  0.114  0.000  0.114
    6  0.000  0.052  0.000  0.052
    7  0.000  0.072  0.000  0.072
    8  0.000  0.076  0.000  0.076
tot    0.000  0.539  0.000  0.539

band    12 # energy    4.79330956 # occ.  2.00000000

ion      s      p      d    tot
    1  0.000  0.098  0.000  0.098
    2  0.000  0.016  0.000  0.016
    3  0.000  0.028  0.000  0.028
    4  0.000  0.081  0.000  0.081
    5  0.000  0.061  0.000  0.061
    6  0.000  0.078  0.000  0.078
    7  0.000  0.077  0.000  0.077
    8  0.000  0.099  0.000  0.099
tot    0.000  0.539  0.000  0.539

band    13 # energy    4.79330956 # occ.  2.00000000

ion      s      p      d    tot
    1  0.000  0.079  0.000  0.079
    2  0.000  0.052  0.000  0.052
    3  0.000  0.046  0.000  0.046
    4  0.000  0.046  0.000  0.046
    5  0.000  0.060  0.000  0.060
    6  0.000  0.094  0.000  0.094
    7  0.000  0.104  0.000  0.104
    8  0.000  0.057  0.000  0.057
tot    0.000  0.539  0.000  0.539

band    14 # energy    7.95093846 # occ.  2.00000000

ion      s      p      d    tot
    1  0.000  0.014  0.000  0.014
    2  0.000  0.014  0.000  0.014
    3  0.000  0.014  0.000  0.014
    4  0.000  0.014  0.000  0.014
    5  0.000  0.118  0.000  0.118
    6  0.000  0.118  0.000  0.118
    7  0.000  0.118  0.000  0.118
    8  0.000  0.118  0.000  0.118
tot    0.000  0.528  0.000  0.528

band    15 # energy    7.95093846 # occ.  2.00000000

ion      s      p      d    tot
    1  0.000  0.014  0.000  0.014
    2  0.000  0.014  0.000  0.014
    3  0.000  0.014  0.000  0.014
    4  0.000  0.014  0.000  0.014
    5  0.000  0.118  0.000  0.118
    6  0.000  0.118  0.000  0.118
    7  0.000  0.118  0.000  0.118
    8  0.000  0.118  0.000  0.118
tot    0.000  0.528  0.000  0.528

band    16 # energy    7.95093846 # occ.  2.00000000

ion      s      p      d    tot
    1  0.000  0.014  0.000  0.014
    2  0.000  0.014  0.000  0.014
    3  0.000  0.014  0.000  0.014
    4  0.000  0.014  0.000  0.014
    5  0.000  0.118  0.000  0.118
    6  0.000  0.118  0.000  0.118
    7  0.000  0.118  0.000  0.118
    8  0.000  0.118  0.000  0.118
tot    0.000  0.528  0.000  0.528

band    17 # energy    9.32201635 # occ.  0.00000000

ion      s      p      d    tot
    1  0.000  0.025  0.000  0.025
    2  0.000  0.025  0.000  0.025
    3  0.000  0.025  0.000  0.025
    4  0.000  0.025  0.000  0.025
    5  0.035  0.000  0.000  0.035
    6  0.000  0.000  0.000  0.000
    7  0.011  0.000  0.000  0.011
    8  0.045  0.000  0.000  0.045
tot    0.091  0.099  0.000  0.190

band    18 # energy    9.32201635 # occ.  0.00000000

ion      s      p      d    tot
    1  0.000  0.025  0.000  0.025
    2  0.000  0.025  0.000  0.025
    3  0.000  0.025  0.000  0.025
    4  0.000  0.025  0.000  0.025
    5  0.024  0.000  0.000  0.024
    6  0.025  0.000  0.000  0.025
    7  0.040  0.000  0.000  0.040
    8  0.002  0.000  0.000  0.002
tot    0.091  0.099  0.000  0.190

band    19 # energy    9.32201635 # occ.  0.00000000

ion      s      p      d    tot
    1  0.000  0.025  0.000  0.025
    2  0.000  0.025  0.000  0.025
    3  0.000  0.025  0.000  0.025
    4  0.000  0.025  0.000  0.025
    5  0.009  0.000  0.000  0.009
    6  0.043  0.000  0.000  0.043
    7  0.017  0.000  0.000  0.017
    8  0.021  0.000  0.000  0.021
tot    0.091  0.099  0.000  0.190

band    20 # energy   12.22677816 # occ.  0.00000000

ion      s      p      d    tot
    1  0.017  0.000  0.000  0.017
    2  0.131  0.000  0.000  0.131
    3  0.092  0.000  0.000  0.092
    4  0.013  0.000  0.000  0.013
    5  0.000  0.009  0.000  0.009
    6  0.000  0.009  0.000  0.009
    7  0.000  0.009  0.000  0.009
    8  0.000  0.009  0.000  0.009
tot    0.253  0.035  0.000  0.288

band    21 # energy   12.22677816 # occ.  0.00000000

ion      s      p      d    tot
    1  0.001  0.000  0.000  0.001
    2  0.018  0.000  0.000  0.018
    3  0.083  0.000  0.000  0.083
    4  0.152  0.000  0.000  0.152
    5  0.000  0.009  0.000  0.009
    6  0.000  0.009  0.000  0.009
    7  0.000  0.009  0.000  0.009
    8  0.000  0.009  0.000  0.009
tot    0.253  0.035  0.000  0.288

band    22 # energy   12.22677816 # occ.  0.00000000

ion      s      p      d    tot
    1  0.172  0.000  0.000  0.172
    2  0.041  0.000  0.000  0.041
    3  0.015  0.000  0.000  0.015
    4  0.026  0.000  0.000  0.026
    5  0.000  0.009  0.000  0.009
    6  0.000  0.009  0.000  0.009
    7  0.000  0.009  0.000  0.009
    8  0.000  0.009  0.000  0.009
tot    0.253  0.035  0.000  0.288

band    23 # energy   14.02286305 # occ.  0.00000000

ion      s      p      d    tot
    1  0.031  0.000  0.000  0.031
    2  0.031  0.000  0.000  0.031
    3  0.031  0.000  0.000  0.031
    4  0.031  0.000  0.000  0.031
    5  0.111  0.000  0.000  0.111
    6  0.111  0.000  0.000  0.111
    7  0.111  0.000  0.000  0.111
    8  0.111  0.000  0.000  0.111
tot    0.570  0.000  0.000  0.570

band    24 # energy   15.16483287 # occ.  0.00000000

ion      s      p      d    tot
    1  0.000  0.125  0.000  0.125
    2  0.000  0.125  0.000  0.125
    3  0.000  0.125  0.000  0.125
    4  0.000  0.125  0.000  0.125
    5  0.000  0.002  0.000  0.002
    6  0.000  0.002  0.000  0.002
    7  0.000  0.002  0.000  0.002
    8  0.000  0.002  0.000  0.002
tot    0.000  0.509  0.000  0.509

band    25 # energy   15.16483287 # occ.  0.00000000

ion      s      p      d    tot
    1  0.000  0.125  0.000  0.125
    2  0.000  0.125  0.000  0.125
    3  0.000  0.125  0.000  0.125
    4  0.000  0.125  0.000  0.125
    5  0.000  0.002  0.000  0.002
    6  0.000  0.002  0.000  0.002
    7  0.000  0.002  0.000  0.002
    8  0.000  0.002  0.000  0.002
tot    0.000  0.509  0.000  0.509

band    26 # energy   15.16483287 # occ.  0.00000000

ion      s      p      d    tot
    1  0.000  0.125  0.000  0.125
    2  0.000  0.125  0.000  0.125
    3  0.000  0.125  0.000  0.125
    4  0.000  0.125  0.000  0.125
    5  0.000  0.002  0.000  0.002
    6  0.000  0.002  0.000  0.002
    7  0.000  0.002  0.000  0.002
    8  0.000  0.002  0.000  0.002
tot    0.000  0.509  0.000  0.509

band    27 # energy   21.82507742 # occ.  0.00000000

ion      s      p      d    tot
    1  0.000  0.051  0.000  0.051
    2  0.000  0.050  0.000  0.050
    3  0.000  0.060  0.000  0.060
    4  0.000  0.052  0.000  0.052
    5  0.000  0.090  0.000  0.090
    6  0.000  0.075  0.000  0.075
    7  0.000  0.057  0.000  0.057
    8  0.000  0.088  0.000  0.088
tot    0.000  0.522  0.000  0.522

band    28 # energy   21.82507742 # occ.  0.00000000

ion      s      p      d    tot
    1  0.000  0.051  0.000  0.051
    2  0.000  0.066  0.000  0.066
    3  0.000  0.062  0.000  0.062
    4  0.000  0.033  0.000  0.033
    5  0.000  0.089  0.000  0.089
    6  0.000  0.094  0.000  0.094
    7  0.000  0.059  0.000  0.059
    8  0.000  0.068  0.000  0.068
tot    0.000  0.522  0.000  0.522

band    29 # energy   21.82507742 # occ.  0.00000000

ion      s      p      d    tot
    1  0.000  0.050  0.000  0.050
    2  0.000  0.069  0.000  0.069
    3  0.000  0.035  0.000  0.035
    4  0.000  0.057  0.000  0.057
    5  0.000  0.095  0.000  0.095
    6  0.000  0.064  0.000  0.064
    7  0.000  0.097  0.000  0.097
    8  0.000  0.054  0.000  0.054
tot    0.000  0.522  0.000  0.522

band    30 # energy   21.82507742 # occ.  0.00000000

ion      s      p      d    tot
    1  0.000  0.065  0.000  0.065
    2  0.000  0.036  0.000  0.036
    3  0.000  0.020  0.000  0.020
    4  0.000  0.092  0.000  0.092
    5  0.000  0.074  0.000  0.074
    6  0.000  0.079  0.000  0.079
    7  0.000  0.055  0.000  0.055
    8  0.000  0.103  0.000  0.103
tot    0.000  0.522  0.000  0.522

band    31 # energy   21.82507742 # occ.  0.00000000

ion      s      p      d    tot
    1  0.000  0.067  0.000  0.067
    2  0.000  0.029  0.000  0.029
    3  0.000  0.082  0.000  0.082
    4  0.000  0.035  0.000  0.035
    5  0.000  0.048  0.000  0.048
    6  0.000  0.073  0.000  0.073
    7  0.000  0.082  0.000  0.082
    8  0.000  0.106  0.000  0.106
tot    0.000  0.522  0.000  0.522

band    32 # energy   21.82507742 # occ.  0.00000000

ion      s      p      d    tot
    1  0.000  0.034  0.000  0.034
    2  0.000  0.068  0.000  0.068
    3  0.000  0.060  0.000  0.060
    4  0.000  0.050  0.000  0.050
    5  0.000  0.069  0.000  0.069
    6  0.000  0.079  0.000  0.079
    7  0.000  0.116  0.000  0.116
    8  0.000  0.046  0.000  0.046
tot    0.000  0.522  0.000  0.522

band    33 # energy   22.37891831 # occ.  0.00000000

ion      s      p      d    tot
    1  0.000  0.000  0.000  0.000
    2  0.000  0.000  0.000  0.000
    3  0.000  0.000  0.000  0.000
    4  0.000  0.000  0.000  0.000
    5  0.000  0.000  0.000  0.000
    6  0.000  0.000  0.000  0.000
    7  0.000  0.000  0.000  0.000
    8  0.000  0.000  0.000  0.000
tot    0.000  0.000  0.000  0.000

band    34 # energy   22.37891831 # occ.  0.00000000

ion      s      p      d    tot
    1  0.000  0.000  0.000  0.000
    2  0.000  0.000  0.000  0.000
    3  0.000  0.000  0.000  0.000
    4  0.000  0.000  0.000  0.000
    5  0.000  0.000  0.000  0.000
    6  0.000  0.000  0.000  0.000
    7  0.000  0.000  0.000  0.000
    8  0.000  0.000  0.000  0.000
tot    0.000  0.000  0.000  0.000

band    35 # energy   22.55310614 # occ.  0.00000000

ion      s      p      d    tot
    1  0.017  0.000  0.000  0.017
    2  0.021  0.000  0.000  0.021
    3  0.026  0.000  0.000  0.026
    4  0.012  0.000  0.000  0.012
    5  0.000  0.137  0.000  0.137
    6  0.000  0.137  0.000  0.137
    7  0.000  0.137  0.000  0.137
    8  0.000  0.137  0.000  0.137
tot    0.076  0.548  0.000  0.624

band    36 # energy   22.55310614 # occ.  0.00000000

ion      s      p      d    tot
    1  0.034  0.000  0.000  0.034
    2  0.033  0.000  0.000  0.033
    3  0.007  0.000  0.000  0.007
    4  0.002  0.000  0.000  0.002
    5  0.000  0.137  0.000  0.137
    6  0.000  0.137  0.000  0.137
    7  0.000  0.137  0.000  0.137
    8  0.000  0.137  0.000  0.137
tot    0.076  0.548  0.000  0.624

band    37 # energy   22.55310614 # occ.  0.00000000

ion      s      p      d    tot
    1  0.006  0.000  0.000  0.006
    2  0.004  0.000  0.000  0.004
    3  0.024  0.000  0.000  0.024
    4  0.043  0.000  0.000  0.043
    5  0.000  0.137  0.000  0.137
    6  0.000  0.137  0.000  0.137
    7  0.000  0.137  0.000  0.137
    8  0.000  0.137  0.000  0.137
tot    0.076  0.548  0.000  0.624

band    38 # energy   24.21995033 # occ.  0.00000000

ion      s      p      d    tot
    1  0.095  0.000  0.000  0.095
    2  0.095  0.000  0.000  0.095
    3  0.095  0.000  0.000  0.095
    4  0.095  0.000  0.000  0.095
    5  0.000  0.000  0.000  0.000
    6  0.000  0.000  0.000  0.000
    7  0.000  0.000  0.000  0.000
    8  0.000  0.000  0.000  0.000
tot    0.380  0.000  0.000  0.380

band    39 # energy   25.11483735 # occ.  0.00000000

ion      s      p      d    tot
    1  0.000  0.004  0.000  0.004
    2  0.000  0.004  0.000  0.004
    3  0.000  0.004  0.000  0.004
    4  0.000  0.004  0.000  0.004
    5  0.000  0.020  0.000  0.020
    6  0.000  0.020  0.000  0.020
    7  0.000  0.020  0.000  0.020
    8  0.000  0.020  0.000  0.020
tot    0.000  0.096  0.000  0.096

band    40 # energy   25.11483735 # occ.  0.00000000

ion      s      p      d    tot
    1  0.000  0.004  0.000  0.004
    2  0.000  0.004  0.000  0.004
    3  0.000  0.004  0.000  0.004
    4  0.000  0.004  0.000  0.004
    5  0.000  0.020  0.000  0.020
    6  0.000  0.020  0.000  0.020
    7  0.000  0.020  0.000  0.020
    8  0.000  0.020  0.000  0.020
tot    0.000  0.096  0.000  0.096

band    41 # energy   25.11483735 # occ.  0.00000000

ion      s      p      d    tot
    1  0.000  0.004  0.000  0.004
    2  0.000  0.004  0.000  0.004
    3  0.000  0.004  0.000  0.004
    4  0.000  0.004  0.000  0.004
    5  0.000  0.020  0.000  0.020
    6  0.000  0.020  0.000  0.020
    7  0.000  0.020  0.000  0.020
    8  0.000  0.020  0.000  0.020
tot    0.000  0.096  0.000  0.096

band    42 # energy   27.92631053 # occ.  0.00000000

ion      s      p      d    tot
    1  0.000  0.000  0.000  0.000
    2  0.000  0.000  0.000  0.000
    3  0.000  0.000  0.000  0.000
    4  0.000  0.000  0.000  0.000
    5  0.000  0.000  0.000  0.000
    6  0.000  0.000  0.000  0.000
    7  0.000  0.000  0.000  0.000
    8  0.000  0.000  0.000  0.000
tot    0.000  0.000  0.000  0.000

band    43 # energy   27.92631053 # occ.  0.00000000

ion      s      p      d    tot
    1  0.000  0.000  0.000  0.000
    2  0.000  0.000  0.000  0.000
    3  0.000  0.000  0.000  0.000
    4  0.000  0.000  0.000  0.000
    5  0.000  0.000  0.000  0.000
    6  0.000  0.000  0.000  0.000
    7  0.000  0.000  0.000  0.000
    8  0.000  0.000  0.000  0.000
tot    0.000  0.000  0.000  0.000

band    44 # energy   27.92631053 # occ.  0.00000000

ion      s      p      d    tot
    1  0.000  0.000  0.000  0.000
    2  0.000  0.000  0.000  0.000
    3  0.000  0.000  0.000  0.000
    4  0.000  0.000  0.000  0.000
    5  0.000  0.000  0.000  0.000
    6  0.000  0.000  0.000  0.000
    7  0.000  0.000  0.000  0.000
    8  0.000  0.000  0.000  0.000
tot    0.000  0.000  0.000  0.000

band    45 # energy   29.92293323 # occ.  0.00000000

ion      s      p      d    tot
    1  0.000  0.049  0.000  0.049
    2  0.000  0.023  0.000  0.023
    3  0.000  0.051  0.000  0.051
    4  0.000  0.069  0.000  0.069
    5  0.000  0.003  0.000  0.003
    6  0.000  0.008  0.000  0.008
    7  0.000  0.010  0.000  0.010
    8  0.000  0.006  0.000  0.006
tot    0.000  0.220  0.000  0.220

band    46 # energy   29.92293324 # occ.  0.00000000

ion      s      p      d    tot
    1  0.000  0.019  0.000  0.019
    2  0.000  0.036  0.000  0.036
    3  0.000  0.063  0.000  0.063
    4  0.000  0.075  0.000  0.075
    5  0.000  0.012  0.000  0.012
    6  0.000  0.009  0.000  0.009
    7  0.000  0.002  0.000  0.002
    8  0.000  0.005  0.000  0.005
tot    0.000  0.220  0.000  0.220

band    47 # energy   29.92293324 # occ.  0.00000000

ion      s      p      d    tot
    1  0.000  0.068  0.000  0.068
    2  0.000  0.083  0.000  0.083
    3  0.000  0.019  0.000  0.019
    4  0.000  0.021  0.000  0.021
    5  0.000  0.011  0.000  0.011
    6  0.000  0.006  0.000  0.006
    7  0.000  0.004  0.000  0.004
    8  0.000  0.007  0.000  0.007
tot    0.000  0.220  0.000  0.220

band    48 # energy   29.92293325 # occ.  0.00000000

ion      s      p      d    tot
    1  0.000  0.044  0.000  0.044
    2  0.000  0.080  0.000  0.080
    3  0.000  0.039  0.000  0.039
    4  0.000  0.030  0.000  0.030
    5  0.000  0.009  0.000  0.009
    6  0.000  0.005  0.000  0.005
    7  0.000  0.012  0.000  0.012
    8  0.000  0.003  0.000  0.003
tot    0.000  0.220  0.000  0.220

band    49 # energy   29.92293326 # occ.  0.00000000

ion      s      p      d    tot
    1  0.000  0.084  0.000  0.084
    2  0.000  0.009  0.000  0.009
    3  0.000  0.051  0.000  0.051
    4  0.000  0.048  0.000  0.048
    5  0.000  0.006  0.000  0.006
    6  0.000  0.006  0.000  0.006
    7  0.000  0.007  0.000  0.007
    8  0.000  0.009  0.000  0.009
tot    0.000  0.220  0.000  0.220

band    50 # energy   29.92293328 # occ.  0.00000000

ion      s      p      d    tot
    1  0.000  0.024  0.000  0.024
    2  0.000  0.057  0.000  0.057
    3  0.000  0.065  0.000  0.065
    4  0.000  0.046  0.000  0.046
    5  0.000  0.001  0.000  0.001
    6  0.000  0.008  0.000  0.008
    7  0.000  0.007  0.000  0.007
    8  0.000  0.012  0.000  0.012
tot    0.000  0.220  0.000  0.220

band    51 # energy   30.31344496 # occ.  0.00000000

ion      s      p      d    tot
    1  0.000  0.090  0.000  0.090
    2  0.000  0.090  0.000  0.090
    3  0.000  0.090  0.000  0.090
    4  0.000  0.090  0.000  0.090
    5  0.033  0.000  0.000  0.033
    6  0.047  0.000  0.000  0.047
    7  0.012  0.000  0.000  0.012
    8  0.107  0.000  0.000  0.107
tot    0.199  0.358  0.000  0.557

band    52 # energy   30.31344497 # occ.  0.00000000

ion      s      p      d    tot
    1  0.000  0.090  0.000  0.090
    2  0.000  0.090  0.000  0.090
    3  0.000  0.090  0.000  0.090
    4  0.000  0.090  0.000  0.090
    5  0.031  0.000  0.000  0.031
    6  0.006  0.000  0.000  0.006
    7  0.133  0.000  0.000  0.133
    8  0.028  0.000  0.000  0.028
tot    0.199  0.358  0.000  0.557

band    53 # energy   30.31344499 # occ.  0.00000000

ion      s      p      d    tot
    1  0.000  0.090  0.000  0.090
    2  0.000  0.090  0.000  0.090
    3  0.000  0.090  0.000  0.090
    4  0.000  0.090  0.000  0.090
    5  0.085  0.000  0.000  0.085
    6  0.096  0.000  0.000  0.096
    7  0.004  0.000  0.000  0.004
    8  0.014  0.000  0.000  0.014
tot    0.199  0.358  0.000  0.557

band    54 # energy   31.26483720 # occ.  0.00000000

ion      s      p      d    tot
    1  0.025  0.000  0.000  0.025
    2  0.025  0.000  0.000  0.025
    3  0.025  0.000  0.000  0.025
    4  0.025  0.000  0.000  0.025
    5  0.015  0.000  0.000  0.015
    6  0.015  0.000  0.000  0.015
    7  0.015  0.000  0.000  0.015
    8  0.015  0.000  0.000  0.015
tot    0.159  0.000  0.000  0.159

band    55 # energy   32.57161416 # occ.  0.00000000

ion      s      p      d    tot
    1  0.000  0.000  0.000  0.000
    2  0.000  0.000  0.000  0.000
    3  0.000  0.000  0.000  0.000
    4  0.000  0.000  0.000  0.000
    5  0.000  0.000  0.000  0.000
    6  0.000  0.000  0.000  0.000
    7  0.000  0.000  0.000  0.000
    8  0.000  0.000  0.000  0.000
tot    0.000  0.000  0.000  0.000

band    56 # energy   32.57161417 # occ.  0.00000000

ion      s      p      d    tot
    1  0.000  0.000  0.000  0.000
    2  0.000  0.000  0.000  0.000
    3  0.000  0.000  0.000  0.000
    4  0.000  0.000  0.000  0.000
    5  0.000  0.000  0.000  0.000
    6  0.000  0.000  0.000  0.000
    7  0.000  0.000  0.000  0.000
    8  0.000  0.000  0.000  0.000
tot    0.000  0.000  0.000  0.000

band    57 # energy   32.57161418 # occ.  0.00000000

ion      s      p      d    tot
    1  0.000  0.000  0.000  0.000
    2  0.000  0.000  0.000  0.000
    3  0.000  0.000  0.000  0.000
    4  0.000  0.000  0.000  0.000
    5  0.000  0.000  0.000  0.000
    6  0.000  0.000  0.000  0.000
    7  0.000  0.000  0.000  0.000
    8  0.000  0.000  0.000  0.000
tot    0.000  0.000  0.000  0.000

band    58 # energy   36.45245581 # occ.  0.00000000

ion      s      p      d    tot
    1  0.000  0.006  0.000  0.006
    2  0.000  0.007  0.000  0.007
    3  0.000  0.006  0.000  0.006
    4  0.000  0.012  0.000  0.012
    5  0.000  0.027  0.000  0.027
    6  0.000  0.013  0.000  0.013
    7  0.000  0.033  0.000  0.033
    8  0.000  0.015  0.000  0.015
tot    0.000  0.121  0.000  0.121

band    59 # energy   36.45245587 # occ.  0.00000000

ion      s      p      d    tot
    1  0.000  0.006  0.000  0.006
    2  0.000  0.010  0.000  0.010
    3  0.000  0.007  0.000  0.007
    4  0.000  0.007  0.000  0.007
    5  0.000  0.018  0.000  0.018
    6  0.000  0.034  0.000  0.034
    7  0.000  0.032  0.000  0.032
    8  0.000  0.007  0.000  0.007
tot    0.000  0.121  0.000  0.121

band    60 # energy   36.45245594 # occ.  0.00000000

ion      s      p      d    tot
    1  0.000  0.007  0.000  0.007
    2  0.000  0.007  0.000  0.007
    3  0.000  0.008  0.000  0.008
    4  0.000  0.008  0.000  0.008
    5  0.000  0.009  0.000  0.009
    6  0.000  0.041  0.000  0.041
    7  0.000  0.003  0.000  0.003
    8  0.000  0.036  0.000  0.036
tot    0.000  0.121  0.000  0.121

band    61 # energy   36.45245636 # occ.  0.00000000

ion      s      p      d    tot
    1  0.000  0.008  0.000  0.008
    2  0.000  0.007  0.000  0.007
    3  0.000  0.009  0.000  0.009
    4  0.000  0.007  0.000  0.007
    5  0.000  0.038  0.000  0.038
    6  0.000  0.010  0.000  0.010
    7  0.000  0.007  0.000  0.007
    8  0.000  0.034  0.000  0.034
tot    0.000  0.121  0.000  0.121

band    62 # energy   36.45245667 # occ.  0.00000000

ion      s      p      d    tot
    1  0.000  0.014  0.000  0.014
    2  0.000  0.005  0.000  0.005
    3  0.000  0.009  0.000  0.009
    4  0.000  0.004  0.000  0.004
    5  0.000  0.016  0.000  0.016
    6  0.000  0.017  0.000  0.017
    7  0.000  0.036  0.000  0.036
    8  0.000  0.021  0.000  0.021
tot    0.000  0.121  0.000  0.121

band    63 # energy   36.45245816 # occ.  0.00000000

ion      s      p      d    tot
    1  0.000  0.006  0.000  0.006
    2  0.000  0.011  0.000  0.011
    3  0.000  0.006  0.000  0.006
    4  0.000  0.008  0.000  0.008
    5  0.000  0.026  0.000  0.026
    6  0.000  0.020  0.000  0.020
    7  0.000  0.023  0.000  0.023
    8  0.000  0.021  0.000  0.021
tot    0.000  0.121  0.000  0.121

band    64 # energy   37.51348142 # occ.  0.00000000

ion      s      p      d    tot
    1  0.000  0.000  0.000  0.000
    2  0.000  0.000  0.000  0.000
    3  0.000  0.000  0.000  0.000
    4  0.000  0.000  0.000  0.000
    5  0.000  0.002  0.000  0.002
    6  0.000  0.002  0.000  0.002
    7  0.000  0.002  0.000  0.002
    8  0.000  0.002  0.000  0.002
tot    0.000  0.006  0.000  0.006

band    65 # energy   37.51348143 # occ.  0.00000000

ion      s      p      d    tot
    1  0.000  0.000  0.000  0.000
    2  0.000  0.000  0.000  0.000
    3  0.000  0.000  0.000  0.000
    4  0.000  0.000  0.000  0.000
    5  0.000  0.002  0.000  0.002
    6  0.000  0.002  0.000  0.002
    7  0.000  0.002  0.000  0.002
    8  0.000  0.002  0.000  0.002
tot    0.000  0.006  0.000  0.006

band    66 # energy   37.51348146 # occ.  0.00000000

ion      s      p      d    tot
    1  0.000  0.000  0.000  0.000
    2  0.000  0.000  0.000  0.000
    3  0.000  0.000  0.000  0.000
    4  0.000  0.000  0.000  0.000
    5  0.000  0.002  0.000  0.002
    6  0.000  0.002  0.000  0.002
    7  0.000  0.002  0.000  0.002
    8  0.000  0.002  0.000  0.002
tot    0.000  0.006  0.000  0.006

band    67 # energy   39.53088168 # occ.  0.00000000

ion      s      p      d    tot
    1  0.000  0.008  0.000  0.008
    2  0.000  0.008  0.000  0.008
    3  0.000  0.008  0.000  0.008
    4  0.000  0.008  0.000  0.008
    5  0.037  0.000  0.000  0.037
    6  0.000  0.000  0.000  0.000
    7  0.012  0.000  0.000  0.012
    8  0.017  0.000  0.000  0.017
tot    0.067  0.030  0.000  0.097

band    68 # energy   39.53088169 # occ.  0.00000000

ion      s      p      d    tot
    1  0.000  0.008  0.000  0.008
    2  0.000  0.008  0.000  0.008
    3  0.000  0.008  0.000  0.008
    4  0.000  0.008  0.000  0.008
    5  0.005  0.000  0.000  0.005
    6  0.050  0.000  0.000  0.050
    7  0.008  0.000  0.000  0.008
    8  0.005  0.000  0.000  0.005
tot    0.067  0.030  0.000  0.097

band    69 # energy   39.53088201 # occ.  0.00000000

ion      s      p      d    tot
    1  0.000  0.008  0.000  0.008
    2  0.000  0.008  0.000  0.008
    3  0.000  0.008  0.000  0.008
    4  0.000  0.008  0.000  0.008
    5  0.008  0.000  0.000  0.008
    6  0.000  0.000  0.000  0.000
    7  0.030  0.000  0.000  0.030
    8  0.029  0.000  0.000  0.029
tot    0.067  0.030  0.000  0.097

band    70 # energy   41.35597729 # occ.  0.00000000

ion      s      p      d    tot
    1  0.000  0.027  0.000  0.027
    2  0.000  0.027  0.000  0.027
    3  0.000  0.027  0.000  0.027
    4  0.000  0.027  0.000  0.027
    5  0.000  0.071  0.000  0.071
    6  0.000  0.071  0.000  0.071
    7  0.000  0.071  0.000  0.071
    8  0.000  0.071  0.000  0.071
tot    0.000  0.389  0.000  0.389

band    71 # energy   41.35597930 # occ.  0.00000000

ion      s      p      d    tot
    1  0.000  0.027  0.000  0.027
    2  0.000  0.027  0.000  0.027
    3  0.000  0.027  0.000  0.027
    4  0.000  0.027  0.000  0.027
    5  0.000  0.071  0.000  0.071
    6  0.000  0.071  0.000  0.071
    7  0.000  0.071  0.000  0.071
    8  0.000  0.071  0.000  0.071
tot    0.000  0.389  0.000  0.389

band    72 # energy   41.35598782 # occ.  0.00000000

ion      s      p      d    tot
    1  0.000  0.027  0.000  0.027
    2  0.000  0.027  0.000  0.027
    3  0.000  0.027  0.000  0.027
    4  0.000  0.027  0.000  0.027
    5  0.000  0.071  0.000  0.071
    6  0.000  0.070  0.000  0.070
    7  0.000  0.070  0.000  0.070
    8  0.000  0.071  0.000  0.071
tot    0.000  0.389  0.000  0.389

band    73 # energy   41.64031812 # occ.  0.00000000

ion      s      p      d    tot
    1  0.000  0.012  0.000  0.012
    2  0.000  0.005  0.000  0.005
    3  0.000  0.012  0.000  0.012
    4  0.000  0.020  0.000  0.020
    5  0.000  0.000  0.000  0.000
    6  0.000  0.000  0.000  0.000
    7  0.000  0.000  0.000  0.000
    8  0.000  0.000  0.000  0.000
tot    0.000  0.050  0.000  0.050

band    74 # energy   41.64031814 # occ.  0.00000000

ion      s      p      d    tot
    1  0.000  0.006  0.000  0.006
    2  0.000  0.020  0.000  0.020
    3  0.000  0.007  0.000  0.007
    4  0.000  0.017  0.000  0.017
    5  0.000  0.000  0.000  0.000
    6  0.000  0.000  0.000  0.000
    7  0.000  0.000  0.000  0.000
    8  0.000  0.000  0.000  0.000
tot    0.000  0.050  0.000  0.050

band    75 # energy   41.64031817 # occ.  0.00000000

ion      s      p      d    tot
    1  0.000  0.010  0.000  0.010
    2  0.000  0.019  0.000  0.019
    3  0.000  0.010  0.000  0.010
    4  0.000  0.010  0.000  0.010
    5  0.000  0.000  0.000  0.000
    6  0.000  0.000  0.000  0.000
    7  0.000  0.000  0.000  0.000
    8  0.000  0.000  0.000  0.000
tot    0.000  0.050  0.000  0.050

band    76 # energy   41.64031827 # occ.  0.00000000

ion      s      p      d    tot
    1  0.000  0.014  0.000  0.014
    2  0.000  0.011  0.000  0.011
    3  0.000  0.017  0.000  0.017
    4  0.000  0.008  0.000  0.008
    5  0.000  0.000  0.000  0.000
    6  0.000  0.000  0.000  0.000
    7  0.000  0.000  0.000  0.000
    8  0.000  0.000  0.000  0.000